
  Memory set to   9.313 GiB by Python driver.
  Threads set to 10 by Python driver.

         ----------------------------------------------------------
                                   FINDIF
                     R. A. King and Jonathon Misiewicz
         ----------------------------------------------------------

  Using finite-differences of gradients to determine vibrational frequencies and 
  normal modes. Resulting frequencies are only valid at stationary points.
    Generating geometries for use with 3-point formula.
    Displacement size will be 5.00e-03.
    Number of atoms is 9.
    Number of irreps is 1.
    Number of SALCs is 24.
    Translations projected? 1. Rotations projected? 0.
    Index of SALCs per irrep:
      1 :  0  1  2  3  4  5  6  7  8  9  10  11  12  13  14  15  16  17  18  19  20  21  22  23 
    Number of SALCs per irrep:
      Irrep 1: 24
    Number of geometries (including reference) is 49.
    Number of displacements per irrep:
      Irrep 1: 48
 49 displacements needed ...

  //>>>>>>>>>>>>>>>>>>>>>>>>>>>>>>>>>>>//
  //    FiniteDifference Computations  //
  //<<<<<<<<<<<<<<<<<<<<<<<<<<<<<<<<<<<//


    -----------------------------------------------------------------------
          Psi4: An Open-Source Ab Initio Electronic Structure Package
                               Psi4 1.9.1 release

                         Git: Rev {} zzzzzzz 


    D. G. A. Smith, L. A. Burns, A. C. Simmonett, R. M. Parrish,
    M. C. Schieber, R. Galvelis, P. Kraus, H. Kruse, R. Di Remigio,
    A. Alenaizan, A. M. James, S. Lehtola, J. P. Misiewicz, M. Scheurer,
    R. A. Shaw, J. B. Schriber, Y. Xie, Z. L. Glick, D. A. Sirianni,
    J. S. O'Brien, J. M. Waldrop, A. Kumar, E. G. Hohenstein,
    B. P. Pritchard, B. R. Brooks, H. F. Schaefer III, A. Yu. Sokolov,
    K. Patkowski, A. E. DePrince III, U. Bozkaya, R. A. King,
    F. A. Evangelista, J. M. Turney, T. D. Crawford, C. D. Sherrill,
    J. Chem. Phys. 152(18) 184108 (2020). https://doi.org/10.1063/5.0006002

                            Additional Code Authors
    E. T. Seidl, C. L. Janssen, E. F. Valeev, M. L. Leininger,
    J. F. Gonthier, R. M. Richard, H. R. McAlexander, M. Saitow, X. Wang,
    P. Verma, M. H. Lechner, A. Jiang, S. Behnle, A. G. Heide,
    M. F. Herbst, and D. L. Poole

             Previous Authors, Complete List of Code Contributors,
                       and Citations for Specific Modules
    https://github.com/psi4/psi4/blob/master/codemeta.json
    https://github.com/psi4/psi4/graphs/contributors
    http://psicode.org/psi4manual/master/introduction.html#citing-psifour

    -----------------------------------------------------------------------


    Psi4 started on: Sunday, 18 May 2025 04:51PM

    Process ID: 884575
    Host:       ivy
    PSIDATADIR: /home/kchung25/miniconda3/envs/p4env/share/psi4
    Memory:     9.3 GiB
    Threads:    10
    
  ==> Input QCSchema <==

--------------------------------------------------------------------------
{'driver': 'gradient',
 'extras': {'psiapi': True, 'wfn_qcvars_only': True},
 'id': None,
 'keywords': {'D_CONVERGENCE': 1e-10,
              'E_CONVERGENCE': 1e-08,
              'PARENT_SYMMETRY': 'C1',
              'PROPERTIES_ORIGIN': ['COM'],
              'SCF__E_CONVERGENCE': 1e-10,
              'function_kwargs': {}},
 'model': {'basis': 'aug-cc-pvtz', 'method': 'mp2'},
 'molecule': {'atom_labels': ['', '', '', '', '', '', '', '', ''],
              'atomic_numbers': [6, 6, 8, 1, 1, 1, 1, 1, 1],
              'extras': {},
              'fix_com': True,
              'fix_orientation': True,
              'fix_symmetry': 'c1',
              'fragment_charges': [0.0],
              'fragment_multiplicities': [1],
              'fragments': [[0, 1, 2, 3, 4, 5, 6, 7, 8]],
              'geometry': [2.36579160016154, 0.4752736794571456, 0.0, -0.0069825380335666746, -1.0891852263823794, 0.0,
                           -2.0934631682218128, 0.6089888103684161, 0.0, -3.62451738534162, -0.36341323118679497, 0.0,
                           4.022697797784588, -0.7391928301385859, 0.0, 2.4247642833587033, 1.6725871450120964,
                           1.6662338857783072, 2.4247642833587033, 1.6725871450120964, -1.6662338857783072,
                           -0.06350613617213577, -2.2966503006832895, 1.6700341250166029, -0.06350613617213577,
                           -2.2966503006832895, -1.6700341250166029],
              'mass_numbers': [12, 12, 16, 1, 1, 1, 1, 1, 1],
              'masses': [12.0, 12.0, 15.99491461957, 1.00782503223, 1.00782503223, 1.00782503223, 1.00782503223,
                         1.00782503223, 1.00782503223],
              'molecular_charge': 0.0,
              'molecular_multiplicity': 1,
              'name': 'C2H6O',
              'provenance': {'creator': 'QCElemental',
                             'routine': 'qcelemental.molparse.from_string',
                             'version': '0.27.1'},
              'real': [True, True, True, True, True, True, True, True, True],
              'schema_name': 'qcschema_molecule',
              'schema_version': 2,
              'symbols': ['C', 'C', 'O', 'H', 'H', 'H', 'H', 'H', 'H'],
              'validated': True},
 'protocols': {'stdout': True},
 'provenance': {'creator': 'QCElemental', 'routine': 'qcelemental.models.results', 'version': '0.27.1'},
 'schema_name': 'qcschema_input',
 'schema_version': 1}
--------------------------------------------------------------------------

Scratch directory: /tmp/
gradient() will perform analytic gradient computation.
    SCF Algorithm Type (re)set to DF.
   => Libint2 <=

    Primary   basis highest AM E, G, H:  6, 6, 3
    Auxiliary basis highest AM E, G, H:  7, 7, 4
    Onebody   basis highest AM E, G, H:  -, -, -
    Solid Harmonics ordering:            Gaussian

*** tstart() called on ivy
*** at Sun May 18 16:51:24 2025

   => Loading Basis Set <=

    Name: AUG-CC-PVTZ
    Role: ORBITAL
    Keyword: BASIS
    atoms 1-2 entry C          line   239 file /home/kchung25/miniconda3/envs/p4env/share/psi4/basis/aug-cc-pvtz.gbs 
    atoms 3   entry O          line   331 file /home/kchung25/miniconda3/envs/p4env/share/psi4/basis/aug-cc-pvtz.gbs 
    atoms 4-9 entry H          line    40 file /home/kchung25/miniconda3/envs/p4env/share/psi4/basis/aug-cc-pvtz.gbs 


         ---------------------------------------------------------
                                   SCF
               by Justin Turney, Rob Parrish, Andy Simmonett
                          and Daniel G. A. Smith
                              RHF Reference
                       10 Threads,   9536 MiB Core
         ---------------------------------------------------------

  ==> Geometry <==

    Molecular point group: c1
    Full point group: Cs

    Geometry (in Bohr), charge = 0, multiplicity = 1:

       Center              X                  Y                   Z               Mass       
    ------------   -----------------  -----------------  -----------------  -----------------
         C            2.365791600162     0.475273679457     0.000000000000    12.000000000000
         C           -0.006982538034    -1.089185226382     0.000000000000    12.000000000000
         O           -2.093463168222     0.608988810368     0.000000000000    15.994914619570
         H           -3.624517385342    -0.363413231187     0.000000000000     1.007825032230
         H            4.022697797785    -0.739192830139     0.000000000000     1.007825032230
         H            2.424764283359     1.672587145012     1.666233885778     1.007825032230
         H            2.424764283359     1.672587145012    -1.666233885778     1.007825032230
         H           -0.063506136172    -2.296650300683     1.670034125017     1.007825032230
         H           -0.063506136172    -2.296650300683    -1.670034125017     1.007825032230

  Running in c1 symmetry.

  Rotational constants: A =      1.17921  B =      0.31703  C =      0.27551 [cm^-1]
  Rotational constants: A =  35351.92652  B =   9504.19550  C =   8259.53314 [MHz]
  Nuclear repulsion =   82.200154880798380

  Charge       = 0
  Multiplicity = 1
  Electrons    = 26
  Nalpha       = 13
  Nbeta        = 13

  ==> Algorithm <==

  SCF Algorithm Type is DF.
  DIIS enabled.
  MOM disabled.
  Fractional occupation disabled.
  Guess Type is SAD.
  Energy threshold   = 1.00e-10
  Density threshold  = 1.00e-10
  Integral threshold = 1.00e-12

  ==> Primary Basis <==

  Basis Set: AUG-CC-PVTZ
    Blend: AUG-CC-PVTZ
    Number of shells: 96
    Number of basis functions: 276
    Number of Cartesian functions: 315
    Spherical Harmonics?: true
    Max angular momentum: 3

   => Loading Basis Set <=

    Name: (AUG-CC-PVTZ AUX)
    Role: JKFIT
    Keyword: DF_BASIS_SCF
    atoms 1-2 entry C          line   162 file /home/kchung25/miniconda3/envs/p4env/share/psi4/basis/aug-cc-pvtz-jkfit.gbs 
    atoms 3   entry O          line   286 file /home/kchung25/miniconda3/envs/p4env/share/psi4/basis/aug-cc-pvtz-jkfit.gbs 
    atoms 4-9 entry H          line    70 file /home/kchung25/miniconda3/envs/p4env/share/psi4/basis/aug-cc-pvtz-jkfit.gbs 

  ==> Integral Setup <==

  DFHelper Memory: AOs need 0.356 GiB; user supplied 6.985 GiB. 
  Using in-core AOs.

  ==> MemDFJK: Density-Fitted J/K Matrices <==

    J tasked:                   Yes
    K tasked:                   Yes
    wK tasked:                   No
    OpenMP threads:              10
    Memory [MiB]:              7152
    Algorithm:                 Core
    Schwarz Cutoff:           1E-12
    Mask sparsity (%):       0.2757
    Fitting Condition:        1E-10

   => Auxiliary Basis Set <=

  Basis Set: (AUG-CC-PVTZ AUX)
    Blend: AUG-CC-PVTZ-JKFIT
    Number of shells: 174
    Number of basis functions: 588
    Number of Cartesian functions: 723
    Spherical Harmonics?: true
    Max angular momentum: 4

  Minimum eigenvalue in the overlap matrix is 1.8311160181E-05.
  Reciprocal condition number of the overlap matrix is 1.2682821431E-06.
    Using symmetric orthogonalization.

  ==> Pre-Iterations <==

  SCF Guess: Superposition of Atomic Densities via on-the-fly atomic UHF (no occupation information).

   -------------------------
    Irrep   Nso     Nmo    
   -------------------------
     A        276     276 
   -------------------------
    Total     276     276
   -------------------------

  ==> Iterations <==

                           Total Energy        Delta E     RMS |[F,P]|

   @DF-RHF iter SAD:  -153.44315780137146   -1.53443e+02   0.00000e+00 
   @DF-RHF iter   1:  -153.99908908112687   -5.55931e-01   1.92094e-03 DIIS/ADIIS
   @DF-RHF iter   2:  -154.11111740443812   -1.12028e-01   1.06688e-03 DIIS/ADIIS
   @DF-RHF iter   3:  -154.14382377971950   -3.27064e-02   1.71655e-04 DIIS/ADIIS
   @DF-RHF iter   4:  -154.14542485717968   -1.60108e-03   6.56889e-05 DIIS
   @DF-RHF iter   5:  -154.14561420724505   -1.89350e-04   1.14706e-05 DIIS
   @DF-RHF iter   6:  -154.14562377268626   -9.56544e-06   2.53963e-06 DIIS
   @DF-RHF iter   7:  -154.14562432415499   -5.51469e-07   7.72977e-07 DIIS
   @DF-RHF iter   8:  -154.14562436678790   -4.26329e-08   2.09613e-07 DIIS
   @DF-RHF iter   9:  -154.14562437088520   -4.09730e-09   5.04004e-08 DIIS
   @DF-RHF iter  10:  -154.14562437114438   -2.59178e-10   9.57012e-09 DIIS
   @DF-RHF iter  11:  -154.14562437115376   -9.37916e-12   2.20400e-09 DIIS
   @DF-RHF iter  12:  -154.14562437115404   -2.84217e-13   5.05646e-10 DIIS
   @DF-RHF iter  13:  -154.14562437115436   -3.12639e-13   1.09060e-10 DIIS
   @DF-RHF iter  14:  -154.14562437115381    5.40012e-13   2.30559e-11 DIIS
  Energy and wave function converged.


  ==> Post-Iterations <==

    Orbital Energies [Eh]
    ---------------------

    Doubly Occupied:                                                      

       1A    -20.554864     2A    -11.272358     3A    -11.209253  
       4A     -1.357114     5A     -1.015393     6A     -0.834741  
       7A     -0.699850     8A     -0.647637     9A     -0.571497  
      10A     -0.533350    11A     -0.525653    12A     -0.489842  
      13A     -0.442929  

    Virtual:                                                              

      14A      0.029188    15A      0.039777    16A      0.042542  
      17A      0.044832    18A      0.063186    19A      0.067402  
      20A      0.098725    21A      0.115448    22A      0.116770  
      23A      0.122121    24A      0.138426    25A      0.143451  
      26A      0.146383    27A      0.177372    28A      0.186410  
      29A      0.193599    30A      0.212947    31A      0.235183  
      32A      0.236462    33A      0.248585    34A      0.277068  
      35A      0.285707    36A      0.289399    37A      0.291296  
      38A      0.311540    39A      0.327012    40A      0.333296  
      41A      0.341668    42A      0.359649    43A      0.360183  
      44A      0.373343    45A      0.380270    46A      0.388094  
      47A      0.395681    48A      0.398808    49A      0.418710  
      50A      0.426213    51A      0.437246    52A      0.446619  
      53A      0.451801    54A      0.460977    55A      0.474991  
      56A      0.476075    57A      0.479596    58A      0.495942  
      59A      0.499333    60A      0.514352    61A      0.522372  
      62A      0.530423    63A      0.543054    64A      0.568109  
      65A      0.570817    66A      0.585848    67A      0.604455  
      68A      0.693669    69A      0.727267    70A      0.737282  
      71A      0.762225    72A      0.777676    73A      0.805693  
      74A      0.812085    75A      0.828513    76A      0.830110  
      77A      0.834449    78A      0.847648    79A      0.865735  
      80A      0.881842    81A      0.896635    82A      0.907735  
      83A      0.910115    84A      0.923820    85A      0.949699  
      86A      0.954367    87A      0.971026    88A      0.976840  
      89A      0.979717    90A      0.984520    91A      1.008124  
      92A      1.039366    93A      1.044538    94A      1.054641  
      95A      1.078557    96A      1.083457    97A      1.089509  
      98A      1.096305    99A      1.103335   100A      1.131554  
     101A      1.140024   102A      1.147731   103A      1.153360  
     104A      1.159989   105A      1.195123   106A      1.198348  
     107A      1.226272   108A      1.256378   109A      1.259890  
     110A      1.264612   111A      1.300803   112A      1.309766  
     113A      1.355180   114A      1.371015   115A      1.393457  
     116A      1.411597   117A      1.420573   118A      1.432882  
     119A      1.447701   120A      1.498289   121A      1.517380  
     122A      1.551280   123A      1.572181   124A      1.590322  
     125A      1.624015   126A      1.632573   127A      1.636024  
     128A      1.660631   129A      1.675505   130A      1.691353  
     131A      1.702318   132A      1.709337   133A      1.720660  
     134A      1.743977   135A      1.757659   136A      1.770479  
     137A      1.811293   138A      1.823018   139A      1.834289  
     140A      1.886842   141A      1.907569   142A      1.922436  
     143A      1.949480   144A      1.970542   145A      2.007115  
     146A      2.042612   147A      2.053361   148A      2.090715  
     149A      2.101057   150A      2.122716   151A      2.179497  
     152A      2.201237   153A      2.226821   154A      2.248854  
     155A      2.285418   156A      2.295433   157A      2.366355  
     158A      2.394854   159A      2.410573   160A      2.480044  
     161A      2.513959   162A      2.538139   163A      2.554648  
     164A      2.644673   165A      2.722689   166A      2.802829  
     167A      2.850608   168A      2.890971   169A      2.898329  
     170A      2.942587   171A      2.946410   172A      3.020717  
     173A      3.036298   174A      3.149343   175A      3.223993  
     176A      3.276601   177A      3.391544   178A      3.400163  
     179A      3.446665   180A      3.450703   181A      3.559180  
     182A      3.576738   183A      3.598034   184A      3.615163  
     185A      3.659073   186A      3.664365   187A      3.711083  
     188A      3.716324   189A      3.762817   190A      3.776684  
     191A      3.811451   192A      3.826201   193A      3.923346  
     194A      3.931931   195A      3.955323   196A      3.967929  
     197A      3.985230   198A      3.992116   199A      4.041295  
     200A      4.074757   201A      4.080719   202A      4.132379  
     203A      4.140707   204A      4.172233   205A      4.192361  
     206A      4.219108   207A      4.264186   208A      4.299966  
     209A      4.312747   210A      4.347990   211A      4.447878  
     212A      4.458974   213A      4.486656   214A      4.523305  
     215A      4.542476   216A      4.563043   217A      4.603051  
     218A      4.673720   219A      4.689898   220A      4.708933  
     221A      4.767282   222A      4.802579   223A      4.833997  
     224A      4.842861   225A      4.908706   226A      4.919333  
     227A      4.950352   228A      5.039514   229A      5.052203  
     230A      5.069141   231A      5.104007   232A      5.131807  
     233A      5.141837   234A      5.167596   235A      5.210575  
     236A      5.276677   237A      5.334774   238A      5.343192  
     239A      5.387604   240A      5.433723   241A      5.450906  
     242A      5.507176   243A      5.566489   244A      5.582436  
     245A      5.614142   246A      5.723950   247A      5.765888  
     248A      5.813961   249A      5.850172   250A      5.953970  
     251A      6.026163   252A      6.050358   253A      6.095144  
     254A      6.185029   255A      6.241930   256A      6.265773  
     257A      6.355071   258A      6.671034   259A      6.678455  
     260A      6.761897   261A      6.814754   262A      6.914396  
     263A      6.936308   264A      7.095051   265A      7.314840  
     266A      7.360462   267A      7.487310   268A      7.524172  
     269A      7.585474   270A      7.807625   271A      7.913188  
     272A      8.205158   273A      8.562552   274A     15.691814  
     275A     17.940699   276A     18.267896  

    Final Occupation by Irrep:
              A 
    DOCC [    13 ]
    NA   [    13 ]
    NB   [    13 ]

  @DF-RHF Final Energy:  -154.14562437115381

   => Energetics <=

    Nuclear Repulsion Energy =             82.2001548807983795
    One-Electron Energy =                -372.3825990174946128
    Two-Electron Energy =                 136.0368197655424183
    Total Energy =                       -154.1456243711538150

Computation Completed


Properties will be evaluated at  -0.000397,   0.000101,   0.000000 [a0]

Properties computed using the SCF density matrix


 Multipole Moments:

 ------------------------------------------------------------------------------------
     Multipole            Electronic (a.u.)      Nuclear  (a.u.)        Total (a.u.)
 ------------------------------------------------------------------------------------

 L = 1.  Multiply by 2.5417464519 to convert [e a0] to [Debye]
 Dipole X            :         -2.5436011            2.5361739           -0.0074272
 Dipole Y            :          0.4892401           -1.1649219           -0.6756818
 Dipole Z            :         -0.0000000            0.0000000           -0.0000000
 Magnitude           :                                                    0.6757226

 ------------------------------------------------------------------------------------

*** tstop() called on ivy at Sun May 18 16:51:25 2025
Module time:
	user time   =       4.65 seconds =       0.08 minutes
	system time =       0.62 seconds =       0.01 minutes
	total time  =          1 seconds =       0.02 minutes
Total time:
	user time   =       4.65 seconds =       0.08 minutes
	system time =       0.62 seconds =       0.01 minutes
	total time  =          1 seconds =       0.02 minutes

*** tstart() called on ivy
*** at Sun May 18 16:51:25 2025


  //>>>>>>>>>>>>>>>>>>>>>>>>>>>>>>>>>>>//
  //               DFMP2               //
  //<<<<<<<<<<<<<<<<<<<<<<<<<<<<<<<<<<<//

   => Loading Basis Set <=

    Name: (AUG-CC-PVTZ AUX)
    Role: RIFIT
    Keyword: DF_BASIS_MP2
    atoms 1-2 entry C          line   148 file /home/kchung25/miniconda3/envs/p4env/share/psi4/basis/aug-cc-pvtz-ri.gbs 
    atoms 3   entry O          line   264 file /home/kchung25/miniconda3/envs/p4env/share/psi4/basis/aug-cc-pvtz-ri.gbs 
    atoms 4-9 entry H          line    30 file /home/kchung25/miniconda3/envs/p4env/share/psi4/basis/aug-cc-pvtz-ri.gbs 

	 --------------------------------------------------------
	                          DF-MP2                         
	      2nd-Order Density-Fitted Moller-Plesset Theory     
	              RMP2 Wavefunction,  10 Threads             
	                                                         
	        Rob Parrish, Justin Turney, Andy Simmonett,      
	           Ed Hohenstein, and C. David Sherrill          
	 --------------------------------------------------------

   => Auxiliary Basis Set <=

  Basis Set: (AUG-CC-PVTZ AUX)
    Blend: AUG-CC-PVTZ-RI
    Number of shells: 168
    Number of basis functions: 594
    Number of Cartesian functions: 738
    Spherical Harmonics?: true
    Max angular momentum: 4

	 --------------------------------------------------------
	                 NBF =   276, NAUX =   594
	 --------------------------------------------------------
	   CLASS    FOCC     OCC    AOCC    AVIR     VIR    FVIR
	   PAIRS       0      13      13     263     263       0
	 --------------------------------------------------------

  DFHelper Memory: AOs need 0.356 GiB; user supplied 6.985 GiB. 
  Using in-core AOs.


         ------------------------------------------------------------
                                     CPHF                           
                                  Rob Parrish                       
         ------------------------------------------------------------

  ==> Geometry <==

    Molecular point group: c1
    Full point group: Cs

    Geometry (in Bohr), charge = 0, multiplicity = 1:

       Center              X                  Y                   Z               Mass       
    ------------   -----------------  -----------------  -----------------  -----------------
         C            2.365791600162     0.475273679457     0.000000000000    12.000000000000
         C           -0.006982538034    -1.089185226382     0.000000000000    12.000000000000
         O           -2.093463168222     0.608988810368     0.000000000000    15.994914619570
         H           -3.624517385342    -0.363413231187     0.000000000000     1.007825032230
         H            4.022697797785    -0.739192830139     0.000000000000     1.007825032230
         H            2.424764283359     1.672587145012     1.666233885778     1.007825032230
         H            2.424764283359     1.672587145012    -1.666233885778     1.007825032230
         H           -0.063506136172    -2.296650300683     1.670034125017     1.007825032230
         H           -0.063506136172    -2.296650300683    -1.670034125017     1.007825032230

  Nuclear repulsion =   82.200154880798380
  Reference energy  = -154.145624371153815

  ==> Basis Set <==

  Basis Set: AUG-CC-PVTZ
    Blend: AUG-CC-PVTZ
    Number of shells: 96
    Number of basis functions: 276
    Number of Cartesian functions: 315
    Spherical Harmonics?: true
    Max angular momentum: 3

  ==> CGRSolver (by Rob Parrish) <==

   Number of roots    =         1
   Preconditioning    =    JACOBI
   Convergence cutoff =     1E-06
   Maximum iterations =       100

  ==> CPHFRHamiltonian (by Rob Parrish) <== 

  ==> MemDFJK: Density-Fitted J/K Matrices <==

    J tasked:                   Yes
    K tasked:                   Yes
    wK tasked:                   No
    OpenMP threads:              10
    Memory [MiB]:              7152
    Algorithm:                 Core
    Schwarz Cutoff:           1E-12
    Mask sparsity (%):       0.2757
    Fitting Condition:        1E-10

   => Auxiliary Basis Set <=

  Basis Set: (AUG-CC-PVTZ AUX)
    Blend: AUG-CC-PVTZ-JKFIT
    Number of shells: 174
    Number of basis functions: 588
    Number of Cartesian functions: 723
    Spherical Harmonics?: true
    Max angular momentum: 4

  ==> CPHF Iterations <==

  => Iterations <=

             Iter  Converged  Remaining    Residual
  CGR           1          0          1   7.139E-02
  CGR           2          0          1   1.638E-02
  CGR           3          0          1   6.649E-03
  CGR           4          0          1   1.672E-03
  CGR           5          0          1   4.072E-04
  CGR           6          0          1   1.035E-04
  CGR           7          0          1   2.651E-05
  CGR           8          0          1   7.209E-06
  CGR           9          0          1   1.394E-06
  CGR          10          1          0   3.226E-07

    CGRSolver converged.

  ==> DFCorrGrad: Density-Fitted Correlated Gradients <==

    OpenMP threads:             10
    Integrals threads:          10
    Memory [GiB]:            6.985
    Schwarz Cutoff:          0E+00
    Fitting Condition:       1E-10

   => Auxiliary Basis Set <=

  Basis Set: (AUG-CC-PVTZ AUX)
    Blend: AUG-CC-PVTZ-JKFIT
    Number of shells: 174
    Number of basis functions: 588
    Number of Cartesian functions: 723
    Spherical Harmonics?: true
    Max angular momentum: 4

	-----------------------------------------------------------
	 ==================> DF-MP2 Energies <==================== 
	-----------------------------------------------------------
	 Reference Energy          =    -154.1456243711538150 [Eh]
	 Singles Energy            =      -0.0000000000000000 [Eh]
	 Same-Spin Energy          =      -0.1480707287161805 [Eh]
	 Opposite-Spin Energy      =      -0.5173931269086226 [Eh]
	 Correlation Energy        =      -0.6654638556248031 [Eh]
	 Total Energy              =    -154.8110882267786224 [Eh]
	-----------------------------------------------------------
	 ================> DF-SCS-MP2 Energies <================== 
	-----------------------------------------------------------
	 SCS Same-Spin Scale       =       0.3333333333333333 [-]
	 SCS Opposite-Spin Scale   =       1.2000000000000000 [-]
	 SCS Same-Spin Energy      =      -0.0493569095720602 [Eh]
	 SCS Opposite-Spin Energy  =      -0.6208717522903471 [Eh]
	 SCS Correlation Energy    =      -0.6702286618624073 [Eh]
	 SCS Total Energy          =    -154.8158530330162250 [Eh]
	-----------------------------------------------------------


  -Total Gradient:
     Atom            X                  Y                   Z
    ------   -----------------  -----------------  -----------------
       1       -0.000000249990    -0.000000375593    -0.000000000498
       2        0.000000642210    -0.000000270016     0.000000000698
       3        0.000000048654     0.000000645127    -0.000000000020
       4        0.000000057228    -0.000000398019    -0.000000000024
       5       -0.000000061443    -0.000000042253     0.000000000008
       6       -0.000000048899     0.000000180808    -0.000000207523
       7       -0.000000048926     0.000000180664     0.000000207702
       8       -0.000000169435     0.000000039719     0.000000129844
       9       -0.000000169400     0.000000039563    -0.000000130188


*** tstop() called on ivy at Sun May 18 16:51:28 2025
Module time:
	user time   =      15.86 seconds =       0.26 minutes
	system time =       2.18 seconds =       0.04 minutes
	total time  =          3 seconds =       0.05 minutes
Total time:
	user time   =      20.51 seconds =       0.34 minutes
	system time =       2.80 seconds =       0.05 minutes
	total time  =          4 seconds =       0.07 minutes

    Psi4 stopped on: Sunday, 18 May 2025 04:51PM
    Psi4 wall time for execution: 0:00:04.40


    -----------------------------------------------------------------------
          Psi4: An Open-Source Ab Initio Electronic Structure Package
                               Psi4 1.9.1 release

                         Git: Rev {} zzzzzzz 


    D. G. A. Smith, L. A. Burns, A. C. Simmonett, R. M. Parrish,
    M. C. Schieber, R. Galvelis, P. Kraus, H. Kruse, R. Di Remigio,
    A. Alenaizan, A. M. James, S. Lehtola, J. P. Misiewicz, M. Scheurer,
    R. A. Shaw, J. B. Schriber, Y. Xie, Z. L. Glick, D. A. Sirianni,
    J. S. O'Brien, J. M. Waldrop, A. Kumar, E. G. Hohenstein,
    B. P. Pritchard, B. R. Brooks, H. F. Schaefer III, A. Yu. Sokolov,
    K. Patkowski, A. E. DePrince III, U. Bozkaya, R. A. King,
    F. A. Evangelista, J. M. Turney, T. D. Crawford, C. D. Sherrill,
    J. Chem. Phys. 152(18) 184108 (2020). https://doi.org/10.1063/5.0006002

                            Additional Code Authors
    E. T. Seidl, C. L. Janssen, E. F. Valeev, M. L. Leininger,
    J. F. Gonthier, R. M. Richard, H. R. McAlexander, M. Saitow, X. Wang,
    P. Verma, M. H. Lechner, A. Jiang, S. Behnle, A. G. Heide,
    M. F. Herbst, and D. L. Poole

             Previous Authors, Complete List of Code Contributors,
                       and Citations for Specific Modules
    https://github.com/psi4/psi4/blob/master/codemeta.json
    https://github.com/psi4/psi4/graphs/contributors
    http://psicode.org/psi4manual/master/introduction.html#citing-psifour

    -----------------------------------------------------------------------


    Psi4 started on: Sunday, 18 May 2025 04:51PM

    Process ID: 884575
    Host:       ivy
    PSIDATADIR: /home/kchung25/miniconda3/envs/p4env/share/psi4
    Memory:     9.3 GiB
    Threads:    10
    
  ==> Input QCSchema <==

--------------------------------------------------------------------------
{'driver': 'gradient',
 'extras': {'psiapi': True, 'wfn_qcvars_only': True},
 'id': None,
 'keywords': {'D_CONVERGENCE': 1e-10,
              'E_CONVERGENCE': 1e-08,
              'PARENT_SYMMETRY': 'C1',
              'PROPERTIES_ORIGIN': ['COM'],
              'SCF__E_CONVERGENCE': 1e-10,
              'function_kwargs': {'write_orbitals': False}},
 'model': {'basis': 'aug-cc-pvtz', 'method': 'mp2'},
 'molecule': {'atom_labels': ['', '', '', '', '', '', '', '', ''],
              'atomic_numbers': [6, 6, 8, 1, 1, 1, 1, 1, 1],
              'extras': {},
              'fix_com': True,
              'fix_orientation': True,
              'fix_symmetry': 'c1',
              'fragment_charges': [0.0],
              'fragment_multiplicities': [1],
              'fragments': [[0, 1, 2, 3, 4, 5, 6, 7, 8]],
              'geometry': [2.3645504920901796, 0.4752736794571456, 0.0, -0.006545038591683529, -1.0891852263823794, 0.0,
                           -2.0930256687799296, 0.6089888103684161, 0.0, -3.6240798858997367, -0.36341323118679497, 0.0,
                           4.023135297226471, -0.7391928301385859, 0.0, 2.4252017828005865, 1.6725871450120964,
                           1.6662338857783072, 2.4252017828005865, 1.6725871450120964, -1.6662338857783072,
                           -0.06306863673025262, -2.2966503006832895, 1.6700341250166029, -0.06306863673025262,
                           -2.2966503006832895, -1.6700341250166029],
              'mass_numbers': [12, 12, 16, 1, 1, 1, 1, 1, 1],
              'masses': [12.0, 12.0, 15.99491461957, 1.00782503223, 1.00782503223, 1.00782503223, 1.00782503223,
                         1.00782503223, 1.00782503223],
              'molecular_charge': 0.0,
              'molecular_multiplicity': 1,
              'name': 'C2H6O',
              'provenance': {'creator': 'QCElemental',
                             'routine': 'qcelemental.molparse.from_string',
                             'version': '0.27.1'},
              'real': [True, True, True, True, True, True, True, True, True],
              'schema_name': 'qcschema_molecule',
              'schema_version': 2,
              'symbols': ['C', 'C', 'O', 'H', 'H', 'H', 'H', 'H', 'H'],
              'validated': True},
 'protocols': {'stdout': True},
 'provenance': {'creator': 'QCElemental', 'routine': 'qcelemental.models.results', 'version': '0.27.1'},
 'schema_name': 'qcschema_input',
 'schema_version': 1}
--------------------------------------------------------------------------

Scratch directory: /tmp/
gradient() will perform analytic gradient computation.
    SCF Algorithm Type (re)set to DF.
   => Libint2 <=

    Primary   basis highest AM E, G, H:  6, 6, 3
    Auxiliary basis highest AM E, G, H:  7, 7, 4
    Onebody   basis highest AM E, G, H:  -, -, -
    Solid Harmonics ordering:            Gaussian

*** tstart() called on ivy
*** at Sun May 18 16:51:28 2025

   => Loading Basis Set <=

    Name: AUG-CC-PVTZ
    Role: ORBITAL
    Keyword: BASIS
    atoms 1-2 entry C          line   239 file /home/kchung25/miniconda3/envs/p4env/share/psi4/basis/aug-cc-pvtz.gbs 
    atoms 3   entry O          line   331 file /home/kchung25/miniconda3/envs/p4env/share/psi4/basis/aug-cc-pvtz.gbs 
    atoms 4-9 entry H          line    40 file /home/kchung25/miniconda3/envs/p4env/share/psi4/basis/aug-cc-pvtz.gbs 


         ---------------------------------------------------------
                                   SCF
               by Justin Turney, Rob Parrish, Andy Simmonett
                          and Daniel G. A. Smith
                              RHF Reference
                       10 Threads,   9536 MiB Core
         ---------------------------------------------------------

  ==> Geometry <==

    Molecular point group: c1
    Full point group: Cs

    Geometry (in Bohr), charge = 0, multiplicity = 1:

       Center              X                  Y                   Z               Mass       
    ------------   -----------------  -----------------  -----------------  -----------------
         C            2.364550492090     0.475273679457     0.000000000000    12.000000000000
         C           -0.006545038592    -1.089185226382     0.000000000000    12.000000000000
         O           -2.093025668780     0.608988810368     0.000000000000    15.994914619570
         H           -3.624079885900    -0.363413231187     0.000000000000     1.007825032230
         H            4.023135297226    -0.739192830139     0.000000000000     1.007825032230
         H            2.425201782801     1.672587145012     1.666233885778     1.007825032230
         H            2.425201782801     1.672587145012    -1.666233885778     1.007825032230
         H           -0.063068636730    -2.296650300683     1.670034125017     1.007825032230
         H           -0.063068636730    -2.296650300683    -1.670034125017     1.007825032230

  Running in c1 symmetry.

  Rotational constants: A =      1.17921  B =      0.31719  C =      0.27563 [cm^-1]
  Rotational constants: A =  35351.92778  B =   9508.96773  C =   8263.13712 [MHz]
  Nuclear repulsion =   82.209399153735120

  Charge       = 0
  Multiplicity = 1
  Electrons    = 26
  Nalpha       = 13
  Nbeta        = 13

  ==> Algorithm <==

  SCF Algorithm Type is DF.
  DIIS enabled.
  MOM disabled.
  Fractional occupation disabled.
  Guess Type is SAD.
  Energy threshold   = 1.00e-10
  Density threshold  = 1.00e-10
  Integral threshold = 1.00e-12

  ==> Primary Basis <==

  Basis Set: AUG-CC-PVTZ
    Blend: AUG-CC-PVTZ
    Number of shells: 96
    Number of basis functions: 276
    Number of Cartesian functions: 315
    Spherical Harmonics?: true
    Max angular momentum: 3

   => Loading Basis Set <=

    Name: (AUG-CC-PVTZ AUX)
    Role: JKFIT
    Keyword: DF_BASIS_SCF
    atoms 1-2 entry C          line   162 file /home/kchung25/miniconda3/envs/p4env/share/psi4/basis/aug-cc-pvtz-jkfit.gbs 
    atoms 3   entry O          line   286 file /home/kchung25/miniconda3/envs/p4env/share/psi4/basis/aug-cc-pvtz-jkfit.gbs 
    atoms 4-9 entry H          line    70 file /home/kchung25/miniconda3/envs/p4env/share/psi4/basis/aug-cc-pvtz-jkfit.gbs 

  ==> Integral Setup <==

  DFHelper Memory: AOs need 0.356 GiB; user supplied 6.985 GiB. 
  Using in-core AOs.

  ==> MemDFJK: Density-Fitted J/K Matrices <==

    J tasked:                   Yes
    K tasked:                   Yes
    wK tasked:                   No
    OpenMP threads:              10
    Memory [MiB]:              7152
    Algorithm:                 Core
    Schwarz Cutoff:           1E-12
    Mask sparsity (%):       0.2757
    Fitting Condition:        1E-10

   => Auxiliary Basis Set <=

  Basis Set: (AUG-CC-PVTZ AUX)
    Blend: AUG-CC-PVTZ-JKFIT
    Number of shells: 174
    Number of basis functions: 588
    Number of Cartesian functions: 723
    Spherical Harmonics?: true
    Max angular momentum: 4

  Minimum eigenvalue in the overlap matrix is 1.8294431406E-05.
  Reciprocal condition number of the overlap matrix is 1.2670913564E-06.
    Using symmetric orthogonalization.

  ==> Pre-Iterations <==

  SCF Guess: Superposition of Atomic Densities via on-the-fly atomic UHF (no occupation information).

   -------------------------
    Irrep   Nso     Nmo    
   -------------------------
     A        276     276 
   -------------------------
    Total     276     276
   -------------------------

  ==> Iterations <==

                           Total Energy        Delta E     RMS |[F,P]|

   @DF-RHF iter SAD:  -153.44395573043121   -1.53444e+02   0.00000e+00 
   @DF-RHF iter   1:  -153.99898402249468   -5.55028e-01   1.92149e-03 DIIS/ADIIS
   @DF-RHF iter   2:  -154.11106016141130   -1.12076e-01   1.06754e-03 DIIS/ADIIS
   @DF-RHF iter   3:  -154.14381343930205   -3.27533e-02   1.71654e-04 DIIS/ADIIS
   @DF-RHF iter   4:  -154.14541497067995   -1.60153e-03   6.57001e-05 DIIS
   @DF-RHF iter   5:  -154.14560433010524   -1.89359e-04   1.14774e-05 DIIS
   @DF-RHF iter   6:  -154.14561389860688   -9.56850e-06   2.54115e-06 DIIS
   @DF-RHF iter   7:  -154.14561445048159   -5.51875e-07   7.73272e-07 DIIS
   @DF-RHF iter   8:  -154.14561449314715   -4.26656e-08   2.09610e-07 DIIS
   @DF-RHF iter   9:  -154.14561449724579   -4.09864e-09   5.04235e-08 DIIS
   @DF-RHF iter  10:  -154.14561449750545   -2.59661e-10   9.57372e-09 DIIS
   @DF-RHF iter  11:  -154.14561449751437   -8.92442e-12   2.20378e-09 DIIS
   @DF-RHF iter  12:  -154.14561449751528   -9.09495e-13   5.05414e-10 DIIS
   @DF-RHF iter  13:  -154.14561449751500    2.84217e-13   1.09024e-10 DIIS
   @DF-RHF iter  14:  -154.14561449751514   -1.42109e-13   2.30729e-11 DIIS
  Energy and wave function converged.


  ==> Post-Iterations <==

    Orbital Energies [Eh]
    ---------------------

    Doubly Occupied:                                                      

       1A    -20.554854     2A    -11.272327     3A    -11.209278  
       4A     -1.357128     5A     -1.015511     6A     -0.834692  
       7A     -0.699870     8A     -0.647699     9A     -0.571564  
      10A     -0.533067    11A     -0.525619    12A     -0.490028  
      13A     -0.442926  

    Virtual:                                                              

      14A      0.029186    15A      0.039779    16A      0.042540  
      17A      0.044831    18A      0.063191    19A      0.067395  
      20A      0.098721    21A      0.115439    22A      0.116772  
      23A      0.122145    24A      0.138428    25A      0.143444  
      26A      0.146366    27A      0.177387    28A      0.186415  
      29A      0.193622    30A      0.212944    31A      0.235165  
      32A      0.236476    33A      0.248582    34A      0.277052  
      35A      0.285718    36A      0.289382    37A      0.291304  
      38A      0.311528    39A      0.327028    40A      0.333303  
      41A      0.341664    42A      0.359647    43A      0.360186  
      44A      0.373329    45A      0.380266    46A      0.388104  
      47A      0.395685    48A      0.398801    49A      0.418708  
      50A      0.426208    51A      0.437224    52A      0.446592  
      53A      0.451746    54A      0.460939    55A      0.475034  
      56A      0.476098    57A      0.479605    58A      0.495950  
      59A      0.499377    60A      0.514377    61A      0.522441  
      62A      0.530563    63A      0.543179    64A      0.568196  
      65A      0.570832    66A      0.585850    67A      0.604462  
      68A      0.693629    69A      0.727304    70A      0.737326  
      71A      0.762223    72A      0.777702    73A      0.805672  
      74A      0.812091    75A      0.828555    76A      0.830088  
      77A      0.834485    78A      0.847501    79A      0.865758  
      80A      0.881849    81A      0.896669    82A      0.907760  
      83A      0.910168    84A      0.923683    85A      0.949833  
      86A      0.954341    87A      0.971008    88A      0.976844  
      89A      0.979920    90A      0.984523    91A      1.008155  
      92A      1.039449    93A      1.044589    94A      1.054775  
      95A      1.078568    96A      1.083442    97A      1.089475  
      98A      1.096339    99A      1.103339   100A      1.131592  
     101A      1.139984   102A      1.147733   103A      1.153375  
     104A      1.159969   105A      1.195156   106A      1.198359  
     107A      1.226250   108A      1.256351   109A      1.259917  
     110A      1.264597   111A      1.300815   112A      1.309694  
     113A      1.355180   114A      1.371159   115A      1.393488  
     116A      1.411602   117A      1.420587   118A      1.432946  
     119A      1.447718   120A      1.498272   121A      1.517399  
     122A      1.551276   123A      1.572218   124A      1.590361  
     125A      1.623974   126A      1.632542   127A      1.636043  
     128A      1.660672   129A      1.675639   130A      1.691393  
     131A      1.702351   132A      1.709343   133A      1.720689  
     134A      1.744009   135A      1.757623   136A      1.770428  
     137A      1.811428   138A      1.823014   139A      1.834431  
     140A      1.886870   141A      1.907741   142A      1.922271  
     143A      1.949585   144A      1.970647   145A      2.007048  
     146A      2.042643   147A      2.053364   148A      2.090975  
     149A      2.101105   150A      2.122645   151A      2.179617  
     152A      2.201245   153A      2.226836   154A      2.248905  
     155A      2.285380   156A      2.295476   157A      2.366288  
     158A      2.394962   159A      2.410653   160A      2.480198  
     161A      2.514080   162A      2.538136   163A      2.554687  
     164A      2.644618   165A      2.722932   166A      2.803114  
     167A      2.850788   168A      2.891218   169A      2.898470  
     170A      2.942665   171A      2.946602   172A      3.020776  
     173A      3.036379   174A      3.149747   175A      3.223960  
     176A      3.276651   177A      3.391223   178A      3.399929  
     179A      3.446355   180A      3.451200   181A      3.559323  
     182A      3.577115   183A      3.597984   184A      3.615186  
     185A      3.659084   186A      3.664657   187A      3.711112  
     188A      3.716484   189A      3.762814   190A      3.776812  
     191A      3.811421   192A      3.826194   193A      3.923389  
     194A      3.931930   195A      3.955258   196A      3.967839  
     197A      3.984783   198A      3.992486   199A      4.041553  
     200A      4.074682   201A      4.080728   202A      4.132426  
     203A      4.141002   204A      4.172163   205A      4.192503  
     206A      4.219136   207A      4.264208   208A      4.299956  
     209A      4.312806   210A      4.347964   211A      4.447566  
     212A      4.458905   213A      4.487002   214A      4.523336  
     215A      4.542535   216A      4.563272   217A      4.603462  
     218A      4.673547   219A      4.689850   220A      4.708932  
     221A      4.767617   222A      4.802741   223A      4.834046  
     224A      4.842534   225A      4.908537   226A      4.919511  
     227A      4.950222   228A      5.039240   229A      5.051954  
     230A      5.069258   231A      5.103888   232A      5.132074  
     233A      5.141888   234A      5.167800   235A      5.210537  
     236A      5.276699   237A      5.334688   238A      5.342857  
     239A      5.387357   240A      5.434116   241A      5.450983  
     242A      5.506735   243A      5.566441   244A      5.582844  
     245A      5.614331   246A      5.723807   247A      5.765371  
     248A      5.813928   249A      5.849819   250A      5.953722  
     251A      6.024812   252A      6.050660   253A      6.094858  
     254A      6.185388   255A      6.242346   256A      6.265506  
     257A      6.355821   258A      6.671017   259A      6.678556  
     260A      6.762291   261A      6.814939   262A      6.914434  
     263A      6.936359   264A      7.095116   265A      7.314902  
     266A      7.360525   267A      7.487429   268A      7.524324  
     269A      7.585584   270A      7.807627   271A      7.913175  
     272A      8.205307   273A      8.562582   274A     15.691593  
     275A     17.943288   276A     18.270552  

    Final Occupation by Irrep:
              A 
    DOCC [    13 ]
    NA   [    13 ]
    NB   [    13 ]

  @DF-RHF Final Energy:  -154.14561449751514

   => Energetics <=

    Nuclear Repulsion Energy =             82.2093991537351201
    One-Electron Energy =                -372.4009010785088662
    Two-Electron Energy =                 136.0458874272586343
    Total Energy =                       -154.1456144975151403

Computation Completed


Properties will be evaluated at  -0.000397,   0.000101,   0.000000 [a0]

Properties computed using the SCF density matrix


 Multipole Moments:

 ------------------------------------------------------------------------------------
     Multipole            Electronic (a.u.)      Nuclear  (a.u.)        Total (a.u.)
 ------------------------------------------------------------------------------------

 L = 1.  Multiply by 2.5417464519 to convert [e a0] to [Debye]
 Dipole X            :         -2.5449611            2.5374773           -0.0074838
 Dipole Y            :          0.4893250           -1.1649219           -0.6755969
 Dipole Z            :          0.0000000            0.0000000            0.0000000
 Magnitude           :                                                    0.6756383

 ------------------------------------------------------------------------------------

*** tstop() called on ivy at Sun May 18 16:51:30 2025
Module time:
	user time   =       5.21 seconds =       0.09 minutes
	system time =       0.55 seconds =       0.01 minutes
	total time  =          2 seconds =       0.03 minutes
Total time:
	user time   =      25.75 seconds =       0.43 minutes
	system time =       3.36 seconds =       0.06 minutes
	total time  =          6 seconds =       0.10 minutes

*** tstart() called on ivy
*** at Sun May 18 16:51:30 2025


  //>>>>>>>>>>>>>>>>>>>>>>>>>>>>>>>>>>>//
  //               DFMP2               //
  //<<<<<<<<<<<<<<<<<<<<<<<<<<<<<<<<<<<//

   => Loading Basis Set <=

    Name: (AUG-CC-PVTZ AUX)
    Role: RIFIT
    Keyword: DF_BASIS_MP2
    atoms 1-2 entry C          line   148 file /home/kchung25/miniconda3/envs/p4env/share/psi4/basis/aug-cc-pvtz-ri.gbs 
    atoms 3   entry O          line   264 file /home/kchung25/miniconda3/envs/p4env/share/psi4/basis/aug-cc-pvtz-ri.gbs 
    atoms 4-9 entry H          line    30 file /home/kchung25/miniconda3/envs/p4env/share/psi4/basis/aug-cc-pvtz-ri.gbs 

	 --------------------------------------------------------
	                          DF-MP2                         
	      2nd-Order Density-Fitted Moller-Plesset Theory     
	              RMP2 Wavefunction,  10 Threads             
	                                                         
	        Rob Parrish, Justin Turney, Andy Simmonett,      
	           Ed Hohenstein, and C. David Sherrill          
	 --------------------------------------------------------

   => Auxiliary Basis Set <=

  Basis Set: (AUG-CC-PVTZ AUX)
    Blend: AUG-CC-PVTZ-RI
    Number of shells: 168
    Number of basis functions: 594
    Number of Cartesian functions: 738
    Spherical Harmonics?: true
    Max angular momentum: 4

	 --------------------------------------------------------
	                 NBF =   276, NAUX =   594
	 --------------------------------------------------------
	   CLASS    FOCC     OCC    AOCC    AVIR     VIR    FVIR
	   PAIRS       0      13      13     263     263       0
	 --------------------------------------------------------

  DFHelper Memory: AOs need 0.356 GiB; user supplied 6.985 GiB. 
  Using in-core AOs.


         ------------------------------------------------------------
                                     CPHF                           
                                  Rob Parrish                       
         ------------------------------------------------------------

  ==> Geometry <==

    Molecular point group: c1
    Full point group: Cs

    Geometry (in Bohr), charge = 0, multiplicity = 1:

       Center              X                  Y                   Z               Mass       
    ------------   -----------------  -----------------  -----------------  -----------------
         C            2.364550492090     0.475273679457     0.000000000000    12.000000000000
         C           -0.006545038592    -1.089185226382     0.000000000000    12.000000000000
         O           -2.093025668780     0.608988810368     0.000000000000    15.994914619570
         H           -3.624079885900    -0.363413231187     0.000000000000     1.007825032230
         H            4.023135297226    -0.739192830139     0.000000000000     1.007825032230
         H            2.425201782801     1.672587145012     1.666233885778     1.007825032230
         H            2.425201782801     1.672587145012    -1.666233885778     1.007825032230
         H           -0.063068636730    -2.296650300683     1.670034125017     1.007825032230
         H           -0.063068636730    -2.296650300683    -1.670034125017     1.007825032230

  Nuclear repulsion =   82.209399153735120
  Reference energy  = -154.145614497515140

  ==> Basis Set <==

  Basis Set: AUG-CC-PVTZ
    Blend: AUG-CC-PVTZ
    Number of shells: 96
    Number of basis functions: 276
    Number of Cartesian functions: 315
    Spherical Harmonics?: true
    Max angular momentum: 3

  ==> CGRSolver (by Rob Parrish) <==

   Number of roots    =         1
   Preconditioning    =    JACOBI
   Convergence cutoff =     1E-06
   Maximum iterations =       100

  ==> CPHFRHamiltonian (by Rob Parrish) <== 

  ==> MemDFJK: Density-Fitted J/K Matrices <==

    J tasked:                   Yes
    K tasked:                   Yes
    wK tasked:                   No
    OpenMP threads:              10
    Memory [MiB]:              7152
    Algorithm:                 Core
    Schwarz Cutoff:           1E-12
    Mask sparsity (%):       0.2757
    Fitting Condition:        1E-10

   => Auxiliary Basis Set <=

  Basis Set: (AUG-CC-PVTZ AUX)
    Blend: AUG-CC-PVTZ-JKFIT
    Number of shells: 174
    Number of basis functions: 588
    Number of Cartesian functions: 723
    Spherical Harmonics?: true
    Max angular momentum: 4

  ==> CPHF Iterations <==

  => Iterations <=

             Iter  Converged  Remaining    Residual
  CGR           1          0          1   7.141E-02
  CGR           2          0          1   1.638E-02
  CGR           3          0          1   6.647E-03
  CGR           4          0          1   1.673E-03
  CGR           5          0          1   4.072E-04
  CGR           6          0          1   1.034E-04
  CGR           7          0          1   2.644E-05
  CGR           8          0          1   7.205E-06
  CGR           9          0          1   1.394E-06
  CGR          10          1          0   3.225E-07

    CGRSolver converged.

  ==> DFCorrGrad: Density-Fitted Correlated Gradients <==

    OpenMP threads:             10
    Integrals threads:          10
    Memory [GiB]:            6.985
    Schwarz Cutoff:          0E+00
    Fitting Condition:       1E-10

   => Auxiliary Basis Set <=

  Basis Set: (AUG-CC-PVTZ AUX)
    Blend: AUG-CC-PVTZ-JKFIT
    Number of shells: 174
    Number of basis functions: 588
    Number of Cartesian functions: 723
    Spherical Harmonics?: true
    Max angular momentum: 4

	-----------------------------------------------------------
	 ==================> DF-MP2 Energies <==================== 
	-----------------------------------------------------------
	 Reference Energy          =    -154.1456144975151403 [Eh]
	 Singles Energy            =      -0.0000000000000000 [Eh]
	 Same-Spin Energy          =      -0.1480756565021684 [Eh]
	 Opposite-Spin Energy      =      -0.5173973155429862 [Eh]
	 Correlation Energy        =      -0.6654729720451545 [Eh]
	 Total Energy              =    -154.8110874695603059 [Eh]
	-----------------------------------------------------------
	 ================> DF-SCS-MP2 Energies <================== 
	-----------------------------------------------------------
	 SCS Same-Spin Scale       =       0.3333333333333333 [-]
	 SCS Opposite-Spin Scale   =       1.2000000000000000 [-]
	 SCS Same-Spin Energy      =      -0.0493585521673895 [Eh]
	 SCS Opposite-Spin Energy  =      -0.6208767786515834 [Eh]
	 SCS Correlation Energy    =      -0.6702353308189729 [Eh]
	 SCS Total Energy          =    -154.8158498283341089 [Eh]
	-----------------------------------------------------------


  -Total Gradient:
     Atom            X                  Y                   Z
    ------   -----------------  -----------------  -----------------
       1       -0.000901850437     0.000067851637     0.000000000979
       2        0.000281886598     0.000111413028     0.000000005475
       3        0.000071468714     0.000021816773    -0.000000000330
       4        0.000009360067    -0.000005097671    -0.000000000101
       5        0.000376422110    -0.000220410775    -0.000000000179
       6        0.000078991175     0.000007118438     0.000008161857
       7        0.000078991139     0.000007119923    -0.000008164145
       8        0.000002365271     0.000005095381    -0.000000350997
       9        0.000002365362     0.000005093265     0.000000347440


*** tstop() called on ivy at Sun May 18 16:51:35 2025
Module time:
	user time   =      19.37 seconds =       0.32 minutes
	system time =       2.36 seconds =       0.04 minutes
	total time  =          5 seconds =       0.08 minutes
Total time:
	user time   =      45.12 seconds =       0.75 minutes
	system time =       5.72 seconds =       0.10 minutes
	total time  =         11 seconds =       0.18 minutes

    Psi4 stopped on: Sunday, 18 May 2025 04:51PM
    Psi4 wall time for execution: 0:00:06.56


    -----------------------------------------------------------------------
          Psi4: An Open-Source Ab Initio Electronic Structure Package
                               Psi4 1.9.1 release

                         Git: Rev {} zzzzzzz 


    D. G. A. Smith, L. A. Burns, A. C. Simmonett, R. M. Parrish,
    M. C. Schieber, R. Galvelis, P. Kraus, H. Kruse, R. Di Remigio,
    A. Alenaizan, A. M. James, S. Lehtola, J. P. Misiewicz, M. Scheurer,
    R. A. Shaw, J. B. Schriber, Y. Xie, Z. L. Glick, D. A. Sirianni,
    J. S. O'Brien, J. M. Waldrop, A. Kumar, E. G. Hohenstein,
    B. P. Pritchard, B. R. Brooks, H. F. Schaefer III, A. Yu. Sokolov,
    K. Patkowski, A. E. DePrince III, U. Bozkaya, R. A. King,
    F. A. Evangelista, J. M. Turney, T. D. Crawford, C. D. Sherrill,
    J. Chem. Phys. 152(18) 184108 (2020). https://doi.org/10.1063/5.0006002

                            Additional Code Authors
    E. T. Seidl, C. L. Janssen, E. F. Valeev, M. L. Leininger,
    J. F. Gonthier, R. M. Richard, H. R. McAlexander, M. Saitow, X. Wang,
    P. Verma, M. H. Lechner, A. Jiang, S. Behnle, A. G. Heide,
    M. F. Herbst, and D. L. Poole

             Previous Authors, Complete List of Code Contributors,
                       and Citations for Specific Modules
    https://github.com/psi4/psi4/blob/master/codemeta.json
    https://github.com/psi4/psi4/graphs/contributors
    http://psicode.org/psi4manual/master/introduction.html#citing-psifour

    -----------------------------------------------------------------------


    Psi4 started on: Sunday, 18 May 2025 04:51PM

    Process ID: 884575
    Host:       ivy
    PSIDATADIR: /home/kchung25/miniconda3/envs/p4env/share/psi4
    Memory:     9.3 GiB
    Threads:    10
    
  ==> Input QCSchema <==

--------------------------------------------------------------------------
{'driver': 'gradient',
 'extras': {'psiapi': True, 'wfn_qcvars_only': True},
 'id': None,
 'keywords': {'D_CONVERGENCE': 1e-10,
              'E_CONVERGENCE': 1e-08,
              'PARENT_SYMMETRY': 'C1',
              'PROPERTIES_ORIGIN': ['COM'],
              'SCF__E_CONVERGENCE': 1e-10,
              'function_kwargs': {'write_orbitals': False}},
 'model': {'basis': 'aug-cc-pvtz', 'method': 'mp2'},
 'molecule': {'atom_labels': ['', '', '', '', '', '', '', '', ''],
              'atomic_numbers': [6, 6, 8, 1, 1, 1, 1, 1, 1],
              'extras': {},
              'fix_com': True,
              'fix_orientation': True,
              'fix_symmetry': 'c1',
              'fragment_charges': [0.0],
              'fragment_multiplicities': [1],
              'fragments': [[0, 1, 2, 3, 4, 5, 6, 7, 8]],
              'geometry': [2.367032708232901, 0.4752736794571456, 0.0, -0.007420037475449819, -1.0891852263823794, 0.0,
                           -2.093900667663696, 0.6089888103684161, 0.0, -3.624954884783503, -0.36341323118679497, 0.0,
                           4.0222602983427045, -0.7391928301385859, 0.0, 2.42432678391682, 1.6725871450120964,
                           1.6662338857783072, 2.42432678391682, 1.6725871450120964, -1.6662338857783072,
                           -0.06394363561401892, -2.2966503006832895, 1.6700341250166029, -0.06394363561401892,
                           -2.2966503006832895, -1.6700341250166029],
              'mass_numbers': [12, 12, 16, 1, 1, 1, 1, 1, 1],
              'masses': [12.0, 12.0, 15.99491461957, 1.00782503223, 1.00782503223, 1.00782503223, 1.00782503223,
                         1.00782503223, 1.00782503223],
              'molecular_charge': 0.0,
              'molecular_multiplicity': 1,
              'name': 'C2H6O',
              'provenance': {'creator': 'QCElemental',
                             'routine': 'qcelemental.molparse.from_string',
                             'version': '0.27.1'},
              'real': [True, True, True, True, True, True, True, True, True],
              'schema_name': 'qcschema_molecule',
              'schema_version': 2,
              'symbols': ['C', 'C', 'O', 'H', 'H', 'H', 'H', 'H', 'H'],
              'validated': True},
 'protocols': {'stdout': True},
 'provenance': {'creator': 'QCElemental', 'routine': 'qcelemental.models.results', 'version': '0.27.1'},
 'schema_name': 'qcschema_input',
 'schema_version': 1}
--------------------------------------------------------------------------

Scratch directory: /tmp/
gradient() will perform analytic gradient computation.
    SCF Algorithm Type (re)set to DF.
   => Libint2 <=

    Primary   basis highest AM E, G, H:  6, 6, 3
    Auxiliary basis highest AM E, G, H:  7, 7, 4
    Onebody   basis highest AM E, G, H:  -, -, -
    Solid Harmonics ordering:            Gaussian

*** tstart() called on ivy
*** at Sun May 18 16:51:35 2025

   => Loading Basis Set <=

    Name: AUG-CC-PVTZ
    Role: ORBITAL
    Keyword: BASIS
    atoms 1-2 entry C          line   239 file /home/kchung25/miniconda3/envs/p4env/share/psi4/basis/aug-cc-pvtz.gbs 
    atoms 3   entry O          line   331 file /home/kchung25/miniconda3/envs/p4env/share/psi4/basis/aug-cc-pvtz.gbs 
    atoms 4-9 entry H          line    40 file /home/kchung25/miniconda3/envs/p4env/share/psi4/basis/aug-cc-pvtz.gbs 


         ---------------------------------------------------------
                                   SCF
               by Justin Turney, Rob Parrish, Andy Simmonett
                          and Daniel G. A. Smith
                              RHF Reference
                       10 Threads,   9536 MiB Core
         ---------------------------------------------------------

  ==> Geometry <==

    Molecular point group: c1
    Full point group: Cs

    Geometry (in Bohr), charge = 0, multiplicity = 1:

       Center              X                  Y                   Z               Mass       
    ------------   -----------------  -----------------  -----------------  -----------------
         C            2.367032708233     0.475273679457     0.000000000000    12.000000000000
         C           -0.007420037475    -1.089185226382     0.000000000000    12.000000000000
         O           -2.093900667664     0.608988810368     0.000000000000    15.994914619570
         H           -3.624954884784    -0.363413231187     0.000000000000     1.007825032230
         H            4.022260298343    -0.739192830139     0.000000000000     1.007825032230
         H            2.424326783917     1.672587145012     1.666233885778     1.007825032230
         H            2.424326783917     1.672587145012    -1.666233885778     1.007825032230
         H           -0.063943635614    -2.296650300683     1.670034125017     1.007825032230
         H           -0.063943635614    -2.296650300683    -1.670034125017     1.007825032230

  Running in c1 symmetry.

  Rotational constants: A =      1.17921  B =      0.31687  C =      0.27539 [cm^-1]
  Rotational constants: A =  35351.92617  B =   9499.42549  C =   8255.93042 [MHz]
  Nuclear repulsion =   82.190916616240287

  Charge       = 0
  Multiplicity = 1
  Electrons    = 26
  Nalpha       = 13
  Nbeta        = 13

  ==> Algorithm <==

  SCF Algorithm Type is DF.
  DIIS enabled.
  MOM disabled.
  Fractional occupation disabled.
  Guess Type is SAD.
  Energy threshold   = 1.00e-10
  Density threshold  = 1.00e-10
  Integral threshold = 1.00e-12

  ==> Primary Basis <==

  Basis Set: AUG-CC-PVTZ
    Blend: AUG-CC-PVTZ
    Number of shells: 96
    Number of basis functions: 276
    Number of Cartesian functions: 315
    Spherical Harmonics?: true
    Max angular momentum: 3

   => Loading Basis Set <=

    Name: (AUG-CC-PVTZ AUX)
    Role: JKFIT
    Keyword: DF_BASIS_SCF
    atoms 1-2 entry C          line   162 file /home/kchung25/miniconda3/envs/p4env/share/psi4/basis/aug-cc-pvtz-jkfit.gbs 
    atoms 3   entry O          line   286 file /home/kchung25/miniconda3/envs/p4env/share/psi4/basis/aug-cc-pvtz-jkfit.gbs 
    atoms 4-9 entry H          line    70 file /home/kchung25/miniconda3/envs/p4env/share/psi4/basis/aug-cc-pvtz-jkfit.gbs 

  ==> Integral Setup <==

  DFHelper Memory: AOs need 0.356 GiB; user supplied 6.985 GiB. 
  Using in-core AOs.

  ==> MemDFJK: Density-Fitted J/K Matrices <==

    J tasked:                   Yes
    K tasked:                   Yes
    wK tasked:                   No
    OpenMP threads:              10
    Memory [MiB]:              7152
    Algorithm:                 Core
    Schwarz Cutoff:           1E-12
    Mask sparsity (%):       0.2757
    Fitting Condition:        1E-10

   => Auxiliary Basis Set <=

  Basis Set: (AUG-CC-PVTZ AUX)
    Blend: AUG-CC-PVTZ-JKFIT
    Number of shells: 174
    Number of basis functions: 588
    Number of Cartesian functions: 723
    Spherical Harmonics?: true
    Max angular momentum: 4

  Minimum eigenvalue in the overlap matrix is 1.8327810854E-05.
  Reciprocal condition number of the overlap matrix is 1.2694676056E-06.
    Using symmetric orthogonalization.

  ==> Pre-Iterations <==

  SCF Guess: Superposition of Atomic Densities via on-the-fly atomic UHF (no occupation information).

   -------------------------
    Irrep   Nso     Nmo    
   -------------------------
     A        276     276 
   -------------------------
    Total     276     276
   -------------------------

  ==> Iterations <==

                           Total Energy        Delta E     RMS |[F,P]|

   @DF-RHF iter SAD:  -153.44235984809725   -1.53442e+02   0.00000e+00 
   @DF-RHF iter   1:  -153.99919208121298   -5.56832e-01   1.92040e-03 DIIS/ADIIS
   @DF-RHF iter   2:  -154.11117277929716   -1.11981e-01   1.06622e-03 DIIS/ADIIS
   @DF-RHF iter   3:  -154.14383246502177   -3.26597e-02   1.71657e-04 DIIS/ADIIS
   @DF-RHF iter   4:  -154.14543309215861   -1.60063e-03   6.56779e-05 DIIS
   @DF-RHF iter   5:  -154.14562243336053   -1.89341e-04   1.14638e-05 DIIS
   @DF-RHF iter   6:  -154.14563199585623   -9.56250e-06   2.53811e-06 DIIS
   @DF-RHF iter   7:  -154.14563254692803   -5.51072e-07   7.72679e-07 DIIS
   @DF-RHF iter   8:  -154.14563258952816   -4.26001e-08   2.09617e-07 DIIS
   @DF-RHF iter   9:  -154.14563259362396   -4.09580e-09   5.03772e-08 DIIS
   @DF-RHF iter  10:  -154.14563259388282   -2.58865e-10   9.56648e-09 DIIS
   @DF-RHF iter  11:  -154.14563259389220   -9.37916e-12   2.20422e-09 DIIS
   @DF-RHF iter  12:  -154.14563259389257   -3.69482e-13   5.05878e-10 DIIS
   @DF-RHF iter  13:  -154.14563259389234    2.27374e-13   1.09096e-10 DIIS
   @DF-RHF iter  14:  -154.14563259389234    0.00000e+00   2.30413e-11 DIIS
  Energy and wave function converged.


  ==> Post-Iterations <==

    Orbital Energies [Eh]
    ---------------------

    Doubly Occupied:                                                      

       1A    -20.554874     2A    -11.272389     3A    -11.209228  
       4A     -1.357100     5A     -1.015275     6A     -0.834790  
       7A     -0.699830     8A     -0.647575     9A     -0.571431  
      10A     -0.533632    11A     -0.525686    12A     -0.489656  
      13A     -0.442932  

    Virtual:                                                              

      14A      0.029189    15A      0.039776    16A      0.042543  
      17A      0.044834    18A      0.063181    19A      0.067410  
      20A      0.098729    21A      0.115457    22A      0.116769  
      23A      0.122098    24A      0.138425    25A      0.143458  
      26A      0.146400    27A      0.177358    28A      0.186405  
      29A      0.193575    30A      0.212951    31A      0.235200  
      32A      0.236449    33A      0.248588    34A      0.277084  
      35A      0.285695    36A      0.289416    37A      0.291288  
      38A      0.311553    39A      0.326995    40A      0.333289  
      41A      0.341672    42A      0.359651    43A      0.360180  
      44A      0.373358    45A      0.380273    46A      0.388085  
      47A      0.395677    48A      0.398815    49A      0.418712  
      50A      0.426218    51A      0.437267    52A      0.446645  
      53A      0.451856    54A      0.461014    55A      0.474948  
      56A      0.476052    57A      0.479587    58A      0.495934  
      59A      0.499289    60A      0.514327    61A      0.522303  
      62A      0.530282    63A      0.542929    64A      0.568022  
      65A      0.570802    66A      0.585845    67A      0.604449  
      68A      0.693709    69A      0.727232    70A      0.737239  
      71A      0.762228    72A      0.777650    73A      0.805715  
      74A      0.812078    75A      0.828471    76A      0.830131  
      77A      0.834413    78A      0.847795    79A      0.865712  
      80A      0.881836    81A      0.896601    82A      0.907711  
      83A      0.910062    84A      0.923957    85A      0.949564  
      86A      0.954393    87A      0.971042    88A      0.976836  
      89A      0.979514    90A      0.984519    91A      1.008093  
      92A      1.039282    93A      1.044488    94A      1.054507  
      95A      1.078546    96A      1.083472    97A      1.089543  
      98A      1.096272    99A      1.103332   100A      1.131516  
     101A      1.140063   102A      1.147728   103A      1.153346  
     104A      1.160009   105A      1.195089   106A      1.198336  
     107A      1.226294   108A      1.256404   109A      1.259862  
     110A      1.264628   111A      1.300791   112A      1.309839  
     113A      1.355181   114A      1.370870   115A      1.393426  
     116A      1.411593   117A      1.420560   118A      1.432820  
     119A      1.447684   120A      1.498306   121A      1.517360  
     122A      1.551283   123A      1.572145   124A      1.590284  
     125A      1.624055   126A      1.632602   127A      1.636005  
     128A      1.660590   129A      1.675369   130A      1.691314  
     131A      1.702286   132A      1.709331   133A      1.720630  
     134A      1.743945   135A      1.757696   136A      1.770531  
     137A      1.811160   138A      1.823020   139A      1.834147  
     140A      1.886815   141A      1.907397   142A      1.922599  
     143A      1.949376   144A      1.970437   145A      2.007182  
     146A      2.042582   147A      2.053358   148A      2.090457  
     149A      2.101008   150A      2.122787   151A      2.179376  
     152A      2.201227   153A      2.226803   154A      2.248804  
     155A      2.285453   156A      2.295390   157A      2.366424  
     158A      2.394746   159A      2.410493   160A      2.479888  
     161A      2.513840   162A      2.538142   163A      2.554609  
     164A      2.644729   165A      2.722445   166A      2.802540  
     167A      2.850429   168A      2.890726   169A      2.898187  
     170A      2.942510   171A      2.946221   172A      3.020659  
     173A      3.036218   174A      3.148941   175A      3.224028  
     176A      3.276551   177A      3.391860   178A      3.400398  
     179A      3.446976   180A      3.450207   181A      3.559037  
     182A      3.576360   183A      3.598085   184A      3.615140  
     185A      3.659063   186A      3.664074   187A      3.711055  
     188A      3.716162   189A      3.762819   190A      3.776558  
     191A      3.811480   192A      3.826208   193A      3.923303  
     194A      3.931931   195A      3.955388   196A      3.968019  
     197A      3.985679   198A      3.991747   199A      4.041037  
     200A      4.074832   201A      4.080709   202A      4.132333  
     203A      4.140413   204A      4.172303   205A      4.192218  
     206A      4.219080   207A      4.264165   208A      4.299974  
     209A      4.312687   210A      4.348016   211A      4.448184  
     212A      4.459046   213A      4.486310   214A      4.523274  
     215A      4.542416   216A      4.562815   217A      4.602641  
     218A      4.673893   219A      4.689946   220A      4.708935  
     221A      4.766944   222A      4.802418   223A      4.833948  
     224A      4.843187   225A      4.908868   226A      4.919153  
     227A      4.950486   228A      5.039788   229A      5.052452  
     230A      5.069023   231A      5.104126   232A      5.131540  
     233A      5.141792   234A      5.167393   235A      5.210614  
     236A      5.276654   237A      5.334855   238A      5.343534  
     239A      5.387848   240A      5.433313   241A      5.450827  
     242A      5.507628   243A      5.566536   244A      5.582025  
     245A      5.613953   246A      5.724095   247A      5.766408  
     248A      5.813996   249A      5.850535   250A      5.954215  
     251A      6.027506   252A      6.050056   253A      6.095435  
     254A      6.184672   255A      6.241510   256A      6.266050  
     257A      6.354324   258A      6.671053   259A      6.678353  
     260A      6.761499   261A      6.814570   262A      6.914358  
     263A      6.936258   264A      7.094986   265A      7.314778  
     266A      7.360398   267A      7.487191   268A      7.524020  
     269A      7.585365   270A      7.807623   271A      7.913200  
     272A      8.205008   273A      8.562523   274A     15.692035  
     275A     17.938035   276A     18.265348  

    Final Occupation by Irrep:
              A 
    DOCC [    13 ]
    NA   [    13 ]
    NB   [    13 ]

  @DF-RHF Final Energy:  -154.14563259389234

   => Energetics <=

    Nuclear Repulsion Energy =             82.1909166162402869
    One-Electron Energy =                -372.3643045033035150
    Two-Electron Energy =                 136.0277552931708556
    Total Energy =                       -154.1456325938923442

Computation Completed


Properties will be evaluated at  -0.000397,   0.000101,   0.000000 [a0]

Properties computed using the SCF density matrix


 Multipole Moments:

 ------------------------------------------------------------------------------------
     Multipole            Electronic (a.u.)      Nuclear  (a.u.)        Total (a.u.)
 ------------------------------------------------------------------------------------

 L = 1.  Multiply by 2.5417464519 to convert [e a0] to [Debye]
 Dipole X            :         -2.5422420            2.5348706           -0.0073714
 Dipole Y            :          0.4891555           -1.1649219           -0.6757663
 Dipole Z            :          0.0000000            0.0000000            0.0000000
 Magnitude           :                                                    0.6758065

 ------------------------------------------------------------------------------------

*** tstop() called on ivy at Sun May 18 16:51:37 2025
Module time:
	user time   =       5.35 seconds =       0.09 minutes
	system time =       0.88 seconds =       0.01 minutes
	total time  =          2 seconds =       0.03 minutes
Total time:
	user time   =      50.50 seconds =       0.84 minutes
	system time =       6.61 seconds =       0.11 minutes
	total time  =         13 seconds =       0.22 minutes

*** tstart() called on ivy
*** at Sun May 18 16:51:37 2025


  //>>>>>>>>>>>>>>>>>>>>>>>>>>>>>>>>>>>//
  //               DFMP2               //
  //<<<<<<<<<<<<<<<<<<<<<<<<<<<<<<<<<<<//

   => Loading Basis Set <=

    Name: (AUG-CC-PVTZ AUX)
    Role: RIFIT
    Keyword: DF_BASIS_MP2
    atoms 1-2 entry C          line   148 file /home/kchung25/miniconda3/envs/p4env/share/psi4/basis/aug-cc-pvtz-ri.gbs 
    atoms 3   entry O          line   264 file /home/kchung25/miniconda3/envs/p4env/share/psi4/basis/aug-cc-pvtz-ri.gbs 
    atoms 4-9 entry H          line    30 file /home/kchung25/miniconda3/envs/p4env/share/psi4/basis/aug-cc-pvtz-ri.gbs 

	 --------------------------------------------------------
	                          DF-MP2                         
	      2nd-Order Density-Fitted Moller-Plesset Theory     
	              RMP2 Wavefunction,  10 Threads             
	                                                         
	        Rob Parrish, Justin Turney, Andy Simmonett,      
	           Ed Hohenstein, and C. David Sherrill          
	 --------------------------------------------------------

   => Auxiliary Basis Set <=

  Basis Set: (AUG-CC-PVTZ AUX)
    Blend: AUG-CC-PVTZ-RI
    Number of shells: 168
    Number of basis functions: 594
    Number of Cartesian functions: 738
    Spherical Harmonics?: true
    Max angular momentum: 4

	 --------------------------------------------------------
	                 NBF =   276, NAUX =   594
	 --------------------------------------------------------
	   CLASS    FOCC     OCC    AOCC    AVIR     VIR    FVIR
	   PAIRS       0      13      13     263     263       0
	 --------------------------------------------------------

  DFHelper Memory: AOs need 0.356 GiB; user supplied 6.985 GiB. 
  Using in-core AOs.


         ------------------------------------------------------------
                                     CPHF                           
                                  Rob Parrish                       
         ------------------------------------------------------------

  ==> Geometry <==

    Molecular point group: c1
    Full point group: Cs

    Geometry (in Bohr), charge = 0, multiplicity = 1:

       Center              X                  Y                   Z               Mass       
    ------------   -----------------  -----------------  -----------------  -----------------
         C            2.367032708233     0.475273679457     0.000000000000    12.000000000000
         C           -0.007420037475    -1.089185226382     0.000000000000    12.000000000000
         O           -2.093900667664     0.608988810368     0.000000000000    15.994914619570
         H           -3.624954884784    -0.363413231187     0.000000000000     1.007825032230
         H            4.022260298343    -0.739192830139     0.000000000000     1.007825032230
         H            2.424326783917     1.672587145012     1.666233885778     1.007825032230
         H            2.424326783917     1.672587145012    -1.666233885778     1.007825032230
         H           -0.063943635614    -2.296650300683     1.670034125017     1.007825032230
         H           -0.063943635614    -2.296650300683    -1.670034125017     1.007825032230

  Nuclear repulsion =   82.190916616240287
  Reference energy  = -154.145632593892344

  ==> Basis Set <==

  Basis Set: AUG-CC-PVTZ
    Blend: AUG-CC-PVTZ
    Number of shells: 96
    Number of basis functions: 276
    Number of Cartesian functions: 315
    Spherical Harmonics?: true
    Max angular momentum: 3

  ==> CGRSolver (by Rob Parrish) <==

   Number of roots    =         1
   Preconditioning    =    JACOBI
   Convergence cutoff =     1E-06
   Maximum iterations =       100

  ==> CPHFRHamiltonian (by Rob Parrish) <== 

  ==> MemDFJK: Density-Fitted J/K Matrices <==

    J tasked:                   Yes
    K tasked:                   Yes
    wK tasked:                   No
    OpenMP threads:              10
    Memory [MiB]:              7152
    Algorithm:                 Core
    Schwarz Cutoff:           1E-12
    Mask sparsity (%):       0.2757
    Fitting Condition:        1E-10

   => Auxiliary Basis Set <=

  Basis Set: (AUG-CC-PVTZ AUX)
    Blend: AUG-CC-PVTZ-JKFIT
    Number of shells: 174
    Number of basis functions: 588
    Number of Cartesian functions: 723
    Spherical Harmonics?: true
    Max angular momentum: 4

  ==> CPHF Iterations <==

  => Iterations <=

             Iter  Converged  Remaining    Residual
  CGR           1          0          1   7.136E-02
  CGR           2          0          1   1.638E-02
  CGR           3          0          1   6.651E-03
  CGR           4          0          1   1.672E-03
  CGR           5          0          1   4.072E-04
  CGR           6          0          1   1.036E-04
  CGR           7          0          1   2.659E-05
  CGR           8          0          1   7.212E-06
  CGR           9          0          1   1.395E-06
  CGR          10          1          0   3.227E-07

    CGRSolver converged.

  ==> DFCorrGrad: Density-Fitted Correlated Gradients <==

    OpenMP threads:             10
    Integrals threads:          10
    Memory [GiB]:            6.985
    Schwarz Cutoff:          0E+00
    Fitting Condition:       1E-10

   => Auxiliary Basis Set <=

  Basis Set: (AUG-CC-PVTZ AUX)
    Blend: AUG-CC-PVTZ-JKFIT
    Number of shells: 174
    Number of basis functions: 588
    Number of Cartesian functions: 723
    Spherical Harmonics?: true
    Max angular momentum: 4

	-----------------------------------------------------------
	 ==================> DF-MP2 Energies <==================== 
	-----------------------------------------------------------
	 Reference Energy          =    -154.1456325938923442 [Eh]
	 Singles Energy            =      -0.0000000000000000 [Eh]
	 Same-Spin Energy          =      -0.1480658463451522 [Eh]
	 Opposite-Spin Energy      =      -0.5173890300549663 [Eh]
	 Correlation Energy        =      -0.6654548764001185 [Eh]
	 Total Energy              =    -154.8110874702924491 [Eh]
	-----------------------------------------------------------
	 ================> DF-SCS-MP2 Energies <================== 
	-----------------------------------------------------------
	 SCS Same-Spin Scale       =       0.3333333333333333 [-]
	 SCS Opposite-Spin Scale   =       1.2000000000000000 [-]
	 SCS Same-Spin Energy      =      -0.0493552821150507 [Eh]
	 SCS Opposite-Spin Energy  =      -0.6208668360659595 [Eh]
	 SCS Correlation Energy    =      -0.6702221181810102 [Eh]
[...]
       3       -0.000028937072    -0.000003969397    -0.000000000056
       4       -0.000005135634     0.000004006331    -0.000000000018
       5        0.000004560707     0.000002410706    -0.000000000001
       6        0.000000577553    -0.000001739408    -0.000002672126
       7        0.000000577497    -0.000001739605     0.000002672430
       8       -0.000026414147    -0.000404580782     0.000931189139
       9       -0.000026414108    -0.000404581297    -0.000931190093


*** tstop() called on ivy at Sun May 18 16:54:54 2025
Module time:
	user time   =      15.45 seconds =       0.26 minutes
	system time =       2.06 seconds =       0.03 minutes
	total time  =          3 seconds =       0.05 minutes
Total time:
	user time   =     991.95 seconds =      16.53 minutes
	system time =     132.09 seconds =       2.20 minutes
	total time  =        210 seconds =       3.50 minutes

    Psi4 stopped on: Sunday, 18 May 2025 04:54PM
    Psi4 wall time for execution: 0:00:04.14


  //>>>>>>>>>>>>>>>>>>>>>>>>>>>>>>>>>>>//
  //      FiniteDifference Results     //
  //<<<<<<<<<<<<<<<<<<<<<<<<<<<<<<<<<<<//

  Computing second-derivative from gradients using projected, 
  symmetry-adapted, cartesian coordinates.

  49 gradients passed in, including the reference geometry.
  Generating complete list of displacements from unique ones.


-------------------------------------------------------------


  ==> Harmonic Vibrational Analysis <==

  non-mass-weighted Hessian:       Symmetric? True   Hermitian? True   Lin Dep Dim?  3 (0)
  projection of translations (True) and rotations (True) removed 6 degrees of freedom (6)
  total projector:                 Symmetric? True   Hermitian? True   Lin Dep Dim?  6 (6)
  mass-weighted Hessian:           Symmetric? True   Hermitian? True   Lin Dep Dim?  3 (0)
  pre-proj  low-frequency mode:    0.0000i [cm^-1]
  pre-proj  low-frequency mode:    0.0000i [cm^-1]
  pre-proj  low-frequency mode:    0.0000i [cm^-1]
  pre-proj  low-frequency mode:    0.0000i [cm^-1]
  pre-proj  low-frequency mode:    0.0000  [cm^-1]
  pre-proj  low-frequency mode:    1.7556  [cm^-1]
  pre-proj  all modes:['3.8144i' '2.5966i' '0.0000i' '0.0000i' '0.0000' '1.7556' '235.1653'
 '283.1792' '418.9092' '825.9358' '916.6954' '1059.8621' '1121.6997'
 '1197.0917' '1277.0624' '1323.8620' '1412.6654' '1467.1183' '1512.1220'
 '1528.1306' '1555.1286' '3055.5724' '3088.9684' '3090.5162' '3169.7710'
 '3174.7119' '3865.4341']
  projected mass-weighted Hessian: Symmetric? True   Hermitian? True   Lin Dep Dim?  6 (6)
  post-proj low-frequency mode:    0.0000i [cm^-1] (TR)
  post-proj low-frequency mode:    0.0000i [cm^-1] (TR)
  post-proj low-frequency mode:    0.0000i [cm^-1] (TR)
  post-proj low-frequency mode:    0.0000  [cm^-1] (TR)
  post-proj low-frequency mode:    0.0000  [cm^-1] (TR)
  post-proj low-frequency mode:    0.0000  [cm^-1] (TR)
  post-proj  all modes:['0.0000i' '0.0000i' '0.0000i' '0.0000' '0.0000' '0.0000' '235.1653'
 '283.1792' '418.9092' '825.9358' '916.6954' '1059.8621' '1121.6997'
 '1197.0917' '1277.0624' '1323.8620' '1412.6654' '1467.1183' '1512.1220'
 '1528.1306' '1555.1286' '3055.5724' '3088.9684' '3090.5162' '3169.7710'
 '3174.7119' '3865.4341']

  Vibration                       7                   8                   9           
  Freq [cm^-1]                 235.1653            283.1792            418.9092       
  Irrep                           A                   A                   A           
  Reduced mass [u]              1.1548              1.0665              2.5993        
  Force const [mDyne/A]         0.0376              0.0504              0.2687        
  Turning point v=0 [a0]        0.6658              0.6314              0.3325        
  RMS dev v=0 [a0 u^1/2]        0.5060              0.4611              0.3791        
  IR activ [km/mol]            55.1632             70.0174             11.5228        
  Char temp [K]                338.3505            407.4318            602.7171       
  ----------------------------------------------------------------------------------
      1   C               -0.00  0.00  0.02   -0.00  0.00  0.02   -0.19  0.04 -0.00   
      2   C                0.00 -0.00  0.04   -0.00 -0.00 -0.07   -0.01 -0.19  0.00   
      3   O                0.00  0.00 -0.09    0.00  0.00 -0.01    0.22  0.07  0.00   
      4   H               -0.00  0.00  0.58   -0.00  0.00  0.80    0.04  0.35 -0.00   
      5   H               -0.00  0.00 -0.46    0.00  0.00  0.37    0.08  0.42 -0.00   
      6   H                0.25 -0.30  0.23   -0.22  0.18 -0.10   -0.50  0.08 -0.01   
      7   H               -0.25  0.30  0.23    0.22 -0.18 -0.10   -0.50  0.08  0.01   
      8   H               -0.03  0.07  0.09   -0.00 -0.05 -0.11   -0.07 -0.16  0.01   
      9   H                0.03 -0.07  0.09    0.00  0.05 -0.11   -0.07 -0.16 -0.01   

  Vibration                       10                  11                  12          
  Freq [cm^-1]                 825.9358            916.6954           1059.8621       
  Irrep                           A                   A                   A           
  Reduced mass [u]              1.0815              2.1718              1.9031        
  Force const [mDyne/A]         0.4347              1.0753              1.2596        
  Turning point v=0 [a0]        0.3671              0.2459              0.2443        
  RMS dev v=0 [a0 u^1/2]        0.2700              0.2563              0.2383        
  IR activ [km/mol]             0.0007             21.8445             58.3589        
  Char temp [K]               1188.3378           1318.9206           1524.9056       
  ----------------------------------------------------------------------------------
      1   C               -0.00 -0.00 -0.05    0.20 -0.01 -0.00    0.09  0.17 -0.00   
      2   C                0.00  0.00 -0.06    0.02 -0.15  0.00   -0.16 -0.11  0.00   
      3   O               -0.00  0.00  0.02   -0.15  0.09  0.00    0.04 -0.07 -0.00   
      4   H                0.00 -0.00 -0.02   -0.12  0.03 -0.00   -0.36  0.58 -0.00   
      5   H               -0.00 -0.00  0.19    0.62  0.56  0.00   -0.10 -0.11  0.00   
      6   H               -0.33 -0.30  0.19   -0.20  0.09 -0.05    0.42  0.11  0.03   
      7   H                0.33  0.30  0.19   -0.20  0.09  0.05    0.42  0.11 -0.03   
      8   H                0.24  0.37  0.22   -0.18 -0.11  0.01   -0.07 -0.13 -0.01   
      9   H               -0.24 -0.37  0.22   -0.18 -0.11 -0.01   -0.07 -0.13  0.01   

  Vibration                       13                  14                  15          
  Freq [cm^-1]                1121.6997           1197.0917           1277.0624       
  Irrep                           A                   A                   A           
  Reduced mass [u]              2.5669              1.5150              1.2620        
  Force const [mDyne/A]         1.9029              1.2791              1.2126        
  Turning point v=0 [a0]        0.2045              0.2577              0.2733        
  RMS dev v=0 [a0 u^1/2]        0.2317              0.2243              0.2171        
  IR activ [km/mol]            47.1335              4.6862             72.1599        
  Char temp [K]               1613.8761           1722.3484           1837.4085       
  ----------------------------------------------------------------------------------
      1   C               -0.10  0.05  0.00   -0.00 -0.00 -0.11    0.02 -0.09  0.00   
      2   C                0.23 -0.17 -0.00    0.00  0.00  0.17    0.01  0.10 -0.00   
      3   O               -0.13  0.13  0.00   -0.00  0.00 -0.05   -0.01 -0.06  0.00   
      4   H               -0.24  0.27 -0.00    0.00 -0.00  0.00   -0.45  0.65 -0.00   
      5   H               -0.37 -0.34 -0.00    0.00 -0.00  0.23    0.13  0.08  0.00   
      6   H                0.19 -0.10  0.08   -0.23 -0.26  0.10   -0.25 -0.01 -0.05   
      7   H                0.19 -0.10 -0.08    0.23  0.26  0.10   -0.25 -0.01  0.05   
      8   H                0.42 -0.13  0.03    0.24 -0.49 -0.16    0.31  0.09  0.00   
      9   H                0.42 -0.13 -0.03   -0.24  0.49 -0.16    0.31  0.09 -0.00   

  Vibration                       16                  17                  18          
  Freq [cm^-1]                1323.8620           1412.6654           1467.1183       
  Irrep                           A                   A                   A           
  Reduced mass [u]              1.1096              1.2395              1.4673        
  Force const [mDyne/A]         1.1457              1.4574              1.8608        
  Turning point v=0 [a0]        0.2863              0.2622              0.2365        
  RMS dev v=0 [a0 u^1/2]        0.2132              0.2064              0.2026        
  IR activ [km/mol]             0.1005              0.2804             14.1007        
  Char temp [K]               1904.7426           2032.5110           2110.8566       
  ----------------------------------------------------------------------------------
      1   C               -0.00 -0.00  0.09   -0.11 -0.08 -0.00   -0.09 -0.02  0.00   
      2   C               -0.00 -0.00 -0.03   -0.05  0.00  0.00    0.17  0.04  0.00   
      3   O               -0.00  0.00 -0.03    0.00  0.02  0.00   -0.01 -0.05 -0.00   
      4   H                0.00 -0.00 -0.01    0.06 -0.08  0.00   -0.22  0.30 -0.00   
      5   H                0.00  0.00 -0.13    0.32  0.48  0.00    0.09  0.22 -0.00   
      6   H                0.15  0.18 -0.05    0.43  0.15 -0.18    0.23 -0.04 -0.00   
      7   H               -0.15 -0.18 -0.05    0.43  0.15  0.18    0.23 -0.04  0.00   
      8   H                0.66 -0.03 -0.01    0.27 -0.00  0.01   -0.56  0.08 -0.01   
      9   H               -0.66  0.03 -0.01    0.27 -0.00 -0.01   -0.56  0.08  0.01   

  Vibration                       19                  20                  21          
  Freq [cm^-1]                1512.1220           1528.1306           1555.1286       
  Irrep                           A                   A                   A           
  Reduced mass [u]              1.0375              1.0454              1.0936        
  Force const [mDyne/A]         1.3977              1.4384              1.5582        
  Turning point v=0 [a0]        0.2770              0.2745              0.2661        
  RMS dev v=0 [a0 u^1/2]        0.1995              0.1985              0.1967        
  IR activ [km/mol]             4.6103              1.8542              1.5257        
  Char temp [K]               2175.6069           2198.6397           2237.4839       
  ----------------------------------------------------------------------------------
      1   C               -0.00 -0.00 -0.05    0.01 -0.05 -0.00    0.01 -0.01 -0.00   
      2   C                0.00  0.00 -0.02    0.03  0.00 -0.00   -0.01 -0.09 -0.00   
      3   O               -0.00 -0.00  0.00   -0.00  0.00 -0.00    0.00 -0.01  0.00   
      4   H               -0.00  0.00  0.01   -0.01  0.01 -0.00    0.01 -0.01  0.00   
      5   H                0.00  0.00  0.70   -0.18 -0.28  0.00   -0.05 -0.09  0.00   
      6   H                0.48 -0.13  0.05   -0.06  0.51 -0.38   -0.01  0.12 -0.09   
      7   H               -0.48  0.13  0.05   -0.06  0.51  0.38   -0.01  0.12  0.09   
      8   H                0.03  0.04  0.00   -0.09 -0.14 -0.10   -0.01  0.54  0.42   
      9   H               -0.03 -0.04  0.00   -0.09 -0.14  0.10   -0.01  0.54 -0.42   

  Vibration                       22                  23                  24          
  Freq [cm^-1]                3055.5724           3088.9684           3090.5162       
  Irrep                           A                   A                   A           
  Reduced mass [u]              1.0557              1.1086              1.0348        
  Force const [mDyne/A]         5.8075              6.2325              5.8233        
  Turning point v=0 [a0]        0.1932              0.1875              0.1940        
  RMS dev v=0 [a0 u^1/2]        0.1404              0.1396              0.1396        
  IR activ [km/mol]            71.4364             55.8895             22.9026        
  Char temp [K]               4396.2884           4444.3378           4446.5648       
  ----------------------------------------------------------------------------------
      1   C                0.00 -0.01  0.00   -0.00 -0.00  0.01   -0.04 -0.02 -0.00   
      2   C                0.01  0.07 -0.00    0.00 -0.00 -0.09    0.00  0.00  0.00   
      3   O               -0.00  0.00  0.00    0.00  0.00  0.00    0.00  0.00 -0.00   
      4   H               -0.00  0.01 -0.00   -0.00 -0.00  0.00   -0.00 -0.00 -0.00   
      5   H               -0.03  0.03 -0.00    0.00 -0.00  0.00    0.48 -0.36 -0.00   
      6   H                0.00  0.01  0.02    0.00 -0.05 -0.07    0.01  0.32  0.46   
      7   H                0.00  0.01 -0.02    0.00  0.06 -0.08    0.01  0.32 -0.46   
      8   H               -0.02 -0.39  0.59   -0.03 -0.41  0.56   -0.00  0.00 -0.00   
      9   H               -0.02 -0.39 -0.59    0.03  0.41  0.56   -0.00 -0.01 -0.01   

  Vibration                       25                  26                  27          
  Freq [cm^-1]                3169.7710           3174.7119           3865.4341       
  Irrep                           A                   A                   A           
  Reduced mass [u]              1.1016              1.1036              1.0665        
  Force const [mDyne/A]         6.5212              6.5538              9.3884        
  Turning point v=0 [a0]        0.1857              0.1854              0.1709        
  RMS dev v=0 [a0 u^1/2]        0.1378              0.1377              0.1248        
  IR activ [km/mol]            44.9319             47.6701             48.6825        
  Char temp [K]               4560.5947           4567.7036           5561.4990       
  ----------------------------------------------------------------------------------
      1   C               -0.05  0.08  0.00   -0.00 -0.00 -0.09   -0.00  0.00  0.00   
      2   C               -0.00  0.01  0.00    0.00  0.00 -0.01    0.00 -0.00 -0.00   
      3   O                0.00 -0.00 -0.00   -0.00 -0.00  0.00   -0.05 -0.03 -0.00   
      4   H                0.00 -0.00  0.00    0.00  0.00  0.00    0.85  0.52  0.00   
      5   H                0.64 -0.47  0.00    0.00 -0.00 -0.02    0.00 -0.00  0.00   
      6   H               -0.02 -0.23 -0.35    0.02  0.41  0.56    0.00  0.00  0.00   
      7   H               -0.02 -0.23  0.35   -0.02 -0.41  0.56    0.00  0.00 -0.00   
      8   H               -0.00 -0.02  0.03   -0.01 -0.05  0.08    0.00 -0.00 -0.00   
      9   H               -0.00 -0.02 -0.03    0.01  0.05  0.08    0.00 -0.00  0.00   

  ==> Thermochemistry Components <==

  Entropy, S
    Electronic S                             0.000 [cal/(mol K)]        0.000 [J/(mol K)]       0.00000000 [mEh/K] (multiplicity = 1)
    Translational S                         37.406 [cal/(mol K)]      156.507 [J/(mol K)]       0.05961029 [mEh/K] (mol. weight = 46.0419 [u], P = 101325.00 [Pa])
    Rotational S                            22.276 [cal/(mol K)]       93.202 [J/(mol K)]       0.03549868 [mEh/K] (symmetry no. = 1)
    Vibrational S                            4.856 [cal/(mol K)]       20.316 [J/(mol K)]       0.00773806 [mEh/K]
  Total S                                   64.537 [cal/(mol K)]      270.025 [J/(mol K)]       0.10284703 [mEh/K]
  Correction S                               0.000 [cal/(mol K)]        0.000 [J/(mol K)]       0.00000000 [mEh/K]

  Constant volume heat capacity, Cv
    Electronic Cv                            0.000 [cal/(mol K)]        0.000 [J/(mol K)]       0.00000000 [mEh/K]
    Translational Cv                         2.981 [cal/(mol K)]       12.472 [J/(mol K)]       0.00475022 [mEh/K]
    Rotational Cv                            2.981 [cal/(mol K)]       12.472 [J/(mol K)]       0.00475022 [mEh/K]
    Vibrational Cv                           7.476 [cal/(mol K)]       31.280 [J/(mol K)]       0.01191403 [mEh/K]
  Total Cv                                  13.438 [cal/(mol K)]       56.224 [J/(mol K)]       0.02141446 [mEh/K]
  Correction Cv                              0.000 [cal/(mol K)]        0.000 [J/(mol K)]       0.00000000 [mEh/K]

  Constant pressure heat capacity, Cp
    Electronic Cp                            0.000 [cal/(mol K)]        0.000 [J/(mol K)]       0.00000000 [mEh/K]
    Translational Cp                         4.968 [cal/(mol K)]       20.786 [J/(mol K)]       0.00791703 [mEh/K]
    Rotational Cp                            2.981 [cal/(mol K)]       12.472 [J/(mol K)]       0.00475022 [mEh/K]
    Vibrational Cp                           7.476 [cal/(mol K)]       31.280 [J/(mol K)]       0.01191403 [mEh/K]
  Total Cp                                  15.425 [cal/(mol K)]       64.538 [J/(mol K)]       0.02458127 [mEh/K]
  Correction Cp                              0.000 [cal/(mol K)]        0.000 [J/(mol K)]       0.00000000 [mEh/K]

  ==> Thermochemistry Energy Analysis <==

  Raw electronic energy, E_e
  Total E_e, Electronic energy at well bottom                                          -154.81108823 [Eh]

  Zero-point vibrational energy, ZPVE = Sum_i omega_i / 2,  E_0 = E_e + ZPVE
    Vibrational ZPVE                        50.864 [kcal/mol]      212.813 [kJ/mol]       0.08105630 [Eh]       17789.801 [cm^-1]
  Correction ZPVE to E_e                    50.864 [kcal/mol]      212.813 [kJ/mol]       0.08105630 [Eh]       17789.801 [cm^-1]
  Total E_0, Enthalpy at 0 [K]                                                         -154.73003193 [Eh]
  *** Absolute enthalpy, not an enthalpy of formation ***

  Thermal (internal) energy, E (includes ZPVE and finite-temperature corrections)
    Electronic contrib to E beyond E_e       0.000 [kcal/mol]        0.000 [kJ/mol]       0.00000000 [Eh]
    Translational contrib to E               0.889 [kcal/mol]        3.718 [kJ/mol]       0.00141628 [Eh]
    Rotational contrib to E                  0.889 [kcal/mol]        3.718 [kJ/mol]       0.00141628 [Eh]
    Vibrational contrib to E                51.792 [kcal/mol]      216.698 [kJ/mol]       0.08253603 [Eh]
  Correction E                              53.570 [kcal/mol]      224.135 [kJ/mol]       0.08536858 [Eh]
  Total E, Thermal (internal) energy at  298.15 [K]                                    -154.72571964 [Eh]

  Enthalpy, H_trans = E_trans + k_B * T = E_trans + P * V
    Electronic contrib to H beyond E_e       0.000 [kcal/mol]        0.000 [kJ/mol]       0.00000000 [Eh]
    Translational contrib to H               1.481 [kcal/mol]        6.197 [kJ/mol]       0.00236046 [Eh]
    Rotational contrib to H                  0.889 [kcal/mol]        3.718 [kJ/mol]       0.00141628 [Eh]
    Vibrational contrib to H                51.792 [kcal/mol]      216.698 [kJ/mol]       0.08253603 [Eh]
  Correction H                              54.162 [kcal/mol]      226.614 [kJ/mol]       0.08631277 [Eh]
  Total H, Enthalpy at  298.15 [K]                                                     -154.72477546 [Eh]
  *** Absolute enthalpy, not an enthalpy of formation ***

  Gibbs free energy, G = H - T * S
    Electronic contrib to G beyond E_e       0.000 [kcal/mol]        0.000 [kJ/mol]       0.00000000 [Eh]
    Translational contrib to G              -9.671 [kcal/mol]      -40.465 [kJ/mol]      -0.01541235 [Eh]
    Rotational contrib to G                 -5.753 [kcal/mol]      -24.070 [kJ/mol]      -0.00916765 [Eh]
    Vibrational contrib to G                50.344 [kcal/mol]      210.641 [kJ/mol]       0.08022893 [Eh]
  Correction G                              34.920 [kcal/mol]      146.106 [kJ/mol]       0.05564893 [Eh]
  Total G, Gibbs energy at  298.15 [K]                                                 -154.75543930 [Eh]
  *** Absolute Gibbs energy, not a free energy of formation ***

