
    -----------------------------------------------------------------------
          Psi4: An Open-Source Ab Initio Electronic Structure Package
                               Psi4 1.9.1 release

                         Git: Rev {} zzzzzzz 


    D. G. A. Smith, L. A. Burns, A. C. Simmonett, R. M. Parrish,
    M. C. Schieber, R. Galvelis, P. Kraus, H. Kruse, R. Di Remigio,
    A. Alenaizan, A. M. James, S. Lehtola, J. P. Misiewicz, M. Scheurer,
    R. A. Shaw, J. B. Schriber, Y. Xie, Z. L. Glick, D. A. Sirianni,
    J. S. O'Brien, J. M. Waldrop, A. Kumar, E. G. Hohenstein,
    B. P. Pritchard, B. R. Brooks, H. F. Schaefer III, A. Yu. Sokolov,
    K. Patkowski, A. E. DePrince III, U. Bozkaya, R. A. King,
    F. A. Evangelista, J. M. Turney, T. D. Crawford, C. D. Sherrill,
    J. Chem. Phys. 152(18) 184108 (2020). https://doi.org/10.1063/5.0006002

                            Additional Code Authors
    E. T. Seidl, C. L. Janssen, E. F. Valeev, M. L. Leininger,
    J. F. Gonthier, R. M. Richard, H. R. McAlexander, M. Saitow, X. Wang,
    P. Verma, M. H. Lechner, A. Jiang, S. Behnle, A. G. Heide,
    M. F. Herbst, and D. L. Poole

             Previous Authors, Complete List of Code Contributors,
                       and Citations for Specific Modules
    https://github.com/psi4/psi4/blob/master/codemeta.json
    https://github.com/psi4/psi4/graphs/contributors
    http://psicode.org/psi4manual/master/introduction.html#citing-psifour

    -----------------------------------------------------------------------


    Psi4 started on: Thursday, 27 February 2025 03:04PM

    Process ID: 3987
    Host:       ivy
    PSIDATADIR: /home/kchung25/miniconda3/envs/p4env/share/psi4
    Memory:     500.0 MiB
    Threads:    2
    
  ==> Input File <==

--------------------------------------------------------------------------
MEMORY 10 GB

molecule dimer {
0 1
C    2.303132   0.769097   0.598623
C    1.771037  -0.610986   0.306818
O    1.096965  -0.672425  -0.955992
H    1.720340  -0.407252  -1.638962
H    2.779410   0.788335   1.576531
H    1.492158   1.491832   0.589266
H    3.046547   1.060996  -0.141675
H    1.016509  -0.890517   1.035624
H    2.564219  -1.357732   0.335502
--
0 1
C   -1.650825  -1.261172   0.511575
C   -1.785969  -0.008614  -0.323983
O   -0.574509   0.723337  -0.392210
H    0.094003   0.137656  -0.776128
H   -2.601194  -1.788706   0.572988
H   -1.329157  -1.008249   1.518936
H   -0.918174  -1.934185   0.070549
H   -2.518005   0.663315   0.116807
H   -2.135832  -0.264998  -1.326644

units ang
no_reorient
no_com
symmetry c1
}

set {
basis        aug-cc-pVTZ
scf_type     df
}

energy("sapt2+")
--------------------------------------------------------------------------

  Memory set to   9.313 GiB by Python driver.

Scratch directory: /tmp/
   => Loading Basis Set <=

    Name: AUG-CC-PVTZ
    Role: ORBITAL
    Keyword: BASIS
    atoms 1-2, 10-11 entry C          line   239 file /home/kchung25/miniconda3/envs/p4env/share/psi4/basis/aug-cc-pvtz.gbs 
    atoms 3, 12      entry O          line   331 file /home/kchung25/miniconda3/envs/p4env/share/psi4/basis/aug-cc-pvtz.gbs 
    atoms 4-9, 13-18 entry H          line    40 file /home/kchung25/miniconda3/envs/p4env/share/psi4/basis/aug-cc-pvtz.gbs 

   => Loading Basis Set <=

    Name: AUG-CC-PVTZ
    Role: ORBITAL
    Keyword: BASIS
    atoms 1-2, 10-11 entry C          line   239 file /home/kchung25/miniconda3/envs/p4env/share/psi4/basis/aug-cc-pvtz.gbs 
    atoms 3, 12      entry O          line   331 file /home/kchung25/miniconda3/envs/p4env/share/psi4/basis/aug-cc-pvtz.gbs 
    atoms 4-9, 13-18 entry H          line    40 file /home/kchung25/miniconda3/envs/p4env/share/psi4/basis/aug-cc-pvtz.gbs 


  //>>>>>>>>>>>>>>>>>>>>>>>>>>>>>>>>>>>//
  //              Dimer HF             //
  //<<<<<<<<<<<<<<<<<<<<<<<<<<<<<<<<<<<//

   => Libint2 <=

    Primary   basis highest AM E, G, H:  6, 6, 3
    Auxiliary basis highest AM E, G, H:  7, 7, 4
    Onebody   basis highest AM E, G, H:  -, -, -
    Solid Harmonics ordering:            Gaussian

*** tstart() called on ivy
*** at Thu Feb 27 15:04:40 2025

   => Loading Basis Set <=

    Name: AUG-CC-PVTZ
    Role: ORBITAL
    Keyword: BASIS
    atoms 1-2, 10-11 entry C          line   239 file /home/kchung25/miniconda3/envs/p4env/share/psi4/basis/aug-cc-pvtz.gbs 
    atoms 3, 12      entry O          line   331 file /home/kchung25/miniconda3/envs/p4env/share/psi4/basis/aug-cc-pvtz.gbs 
    atoms 4-9, 13-18 entry H          line    40 file /home/kchung25/miniconda3/envs/p4env/share/psi4/basis/aug-cc-pvtz.gbs 


         ---------------------------------------------------------
                                   SCF
               by Justin Turney, Rob Parrish, Andy Simmonett
                          and Daniel G. A. Smith
                              RHF Reference
                        2 Threads,   9536 MiB Core
         ---------------------------------------------------------

  ==> Geometry <==

    Molecular point group: c1
    Full point group: C1

    Geometry (in Angstrom), charge = 0, multiplicity = 1:

       Center              X                  Y                   Z               Mass       
    ------------   -----------------  -----------------  -----------------  -----------------
         C            2.303132000000     0.769097000000     0.598623000000    12.000000000000
         C            1.771037000000    -0.610986000000     0.306818000000    12.000000000000
         O            1.096965000000    -0.672425000000    -0.955992000000    15.994914619570
         H            1.720340000000    -0.407252000000    -1.638962000000     1.007825032230
         H            2.779410000000     0.788335000000     1.576531000000     1.007825032230
         H            1.492158000000     1.491832000000     0.589266000000     1.007825032230
         H            3.046547000000     1.060996000000    -0.141675000000     1.007825032230
         H            1.016509000000    -0.890517000000     1.035624000000     1.007825032230
         H            2.564219000000    -1.357732000000     0.335502000000     1.007825032230
         C           -1.650825000000    -1.261172000000     0.511575000000    12.000000000000
         C           -1.785969000000    -0.008614000000    -0.323983000000    12.000000000000
         O           -0.574509000000     0.723337000000    -0.392210000000    15.994914619570
         H            0.094003000000     0.137656000000    -0.776128000000     1.007825032230
         H           -2.601194000000    -1.788706000000     0.572988000000     1.007825032230
         H           -1.329157000000    -1.008249000000     1.518936000000     1.007825032230
         H           -0.918174000000    -1.934185000000     0.070549000000     1.007825032230
         H           -2.518005000000     0.663315000000     0.116807000000     1.007825032230
         H           -2.135832000000    -0.264998000000    -1.326644000000     1.007825032230

  Running in c1 symmetry.

  Rotational constants: A =      0.17409  B =      0.05831  C =      0.05448 [cm^-1]
  Rotational constants: A =   5219.04830  B =   1748.13591  C =   1633.41201 [MHz]
  Nuclear repulsion =  274.370822033201478

  Charge       = 0
  Multiplicity = 1
  Electrons    = 52
  Nalpha       = 26
  Nbeta        = 26

  ==> Algorithm <==

  SCF Algorithm Type is DF.
  DIIS enabled.
  MOM disabled.
  Fractional occupation disabled.
  Guess Type is SAD.
  Energy threshold   = 1.00e-08
  Density threshold  = 1.00e-08
  Integral threshold = 1.00e-12

  ==> Primary Basis <==

  Basis Set: AUG-CC-PVTZ
    Blend: AUG-CC-PVTZ
    Number of shells: 192
    Number of basis functions: 552
    Number of Cartesian functions: 630
    Spherical Harmonics?: true
    Max angular momentum: 3

   => Loading Basis Set <=

    Name: (AUG-CC-PVTZ AUX)
    Role: JKFIT
    Keyword: DF_BASIS_SCF
    atoms 1-2, 10-11 entry C          line   162 file /home/kchung25/miniconda3/envs/p4env/share/psi4/basis/aug-cc-pvtz-jkfit.gbs 
    atoms 3, 12      entry O          line   286 file /home/kchung25/miniconda3/envs/p4env/share/psi4/basis/aug-cc-pvtz-jkfit.gbs 
    atoms 4-9, 13-18 entry H          line    70 file /home/kchung25/miniconda3/envs/p4env/share/psi4/basis/aug-cc-pvtz-jkfit.gbs 

  ==> Integral Setup <==

  ==> DiskDFJK: Density-Fitted J/K Matrices <==

    J tasked:                  Yes
    K tasked:                  Yes
    wK tasked:                  No
    OpenMP threads:              2
    Integrals threads:           2
    Memory [MiB]:             7152
    Algorithm:                Core
    Integral Cache:           SAVE
    Schwarz Cutoff:          1E-12
    Fitting Condition:       1E-10

   => Auxiliary Basis Set <=

  Basis Set: (AUG-CC-PVTZ AUX)
    Blend: AUG-CC-PVTZ-JKFIT
    Number of shells: 348
    Number of basis functions: 1176
    Number of Cartesian functions: 1446
    Spherical Harmonics?: true
    Max angular momentum: 4

  Minimum eigenvalue in the overlap matrix is 6.6496496844E-06.
  Reciprocal condition number of the overlap matrix is 3.2953207686E-07.
    Using symmetric orthogonalization.

  ==> Pre-Iterations <==

  SCF Guess: Superposition of Atomic Densities via on-the-fly atomic UHF (no occupation information).

   -------------------------
    Irrep   Nso     Nmo    
   -------------------------
     A        552     552 
   -------------------------
    Total     552     552
   -------------------------

  ==> Iterations <==

                           Total Energy        Delta E     RMS |[F,P]|

   @DF-RHF iter SAD:  -307.48647312038491   -3.07486e+02   0.00000e+00 
   @DF-RHF iter   1:  -307.98309067732993   -4.96618e-01   1.30437e-03 ADIIS/DIIS
   @DF-RHF iter   2:  -308.20446161429254   -2.21371e-01   6.62130e-04 ADIIS/DIIS
   @DF-RHF iter   3:  -308.25645316867912   -5.19916e-02   1.20597e-04 ADIIS/DIIS
   @DF-RHF iter   4:  -308.25962021588651   -3.16705e-03   4.26123e-05 DIIS
   @DF-RHF iter   5:  -308.25994654057985   -3.26325e-04   9.57548e-06 DIIS
   @DF-RHF iter   6:  -308.25996774296937   -2.12024e-05   2.78090e-06 DIIS
   @DF-RHF iter   7:  -308.25996945218856   -1.70922e-06   8.65110e-07 DIIS
   @DF-RHF iter   8:  -308.25996963155637   -1.79368e-07   3.54605e-07 DIIS
   @DF-RHF iter   9:  -308.25996965509017   -2.35338e-08   8.97618e-08 DIIS
   @DF-RHF iter  10:  -308.25996965769679   -2.60661e-09   3.11965e-08 DIIS
   @DF-RHF iter  11:  -308.25996965796242   -2.65629e-10   5.64053e-09 DIIS
  Energy and wave function converged.


  ==> Post-Iterations <==

    Orbital Energies [Eh]
    ---------------------

    Doubly Occupied:                                                      

       1A    -20.592677     2A    -20.483005     3A    -11.289575  
       4A    -11.241977     5A    -11.219011     6A    -11.196444  
       7A     -1.418418     8A     -1.305248     9A     -1.030303  
      10A     -0.991377    11A     -0.867829    12A     -0.832213  
      13A     -0.742615    14A     -0.668389    15A     -0.650018  
      16A     -0.631064    17A     -0.593096    18A     -0.588464  
      19A     -0.550366    20A     -0.538752    21A     -0.515929  
      22A     -0.502004    23A     -0.497182    24A     -0.475913  
      25A     -0.426820    26A     -0.399165  

    Virtual:                                                              

      27A      0.024177    28A      0.035206    29A      0.037767  
      30A      0.040027    31A      0.052373    32A      0.054399  
      33A      0.055007    34A      0.064099    35A      0.069570  
      36A      0.080699    37A      0.082265    38A      0.088989  
      39A      0.111880    40A      0.116390    41A      0.118100  
      42A      0.123482    43A      0.124861    44A      0.134094  
      45A      0.139742    46A      0.144231    47A      0.150282  
      48A      0.157859    49A      0.159692    50A      0.164494  
      51A      0.170754    52A      0.177079    53A      0.184543  
      54A      0.189953    55A      0.195722    56A      0.218846  
      57A      0.220390    58A      0.233947    59A      0.238053  
      60A      0.246544    61A      0.253522    62A      0.269056  
      63A      0.274125    64A      0.278480    65A      0.282314  
      66A      0.300633    67A      0.305167    68A      0.308820  
      69A      0.311559    70A      0.318066    71A      0.327071  
      72A      0.332718    73A      0.335461    74A      0.337223  
      75A      0.348138    76A      0.354151    77A      0.356713  
      78A      0.357711    79A      0.369688    80A      0.371498  
      81A      0.372254    82A      0.384112    83A      0.386389  
      84A      0.395872    85A      0.401524    86A      0.407771  
      87A      0.408867    88A      0.416546    89A      0.420958  
      90A      0.427919    91A      0.429846    92A      0.434598  
      93A      0.441963    94A      0.445747    95A      0.449042  
      96A      0.454254    97A      0.465656    98A      0.467889  
      99A      0.477153   100A      0.478936   101A      0.486040  
     102A      0.495400   103A      0.501039   104A      0.502647  
     105A      0.505324   106A      0.509483   107A      0.517383  
     108A      0.518066   109A      0.530302   110A      0.537244  
     111A      0.539452   112A      0.543279   113A      0.555154  
     114A      0.558463   115A      0.562319   116A      0.573585  
     117A      0.574775   118A      0.584545   119A      0.588245  
     120A      0.599834   121A      0.606087   122A      0.610847  
     123A      0.617282   124A      0.626976   125A      0.636625  
     126A      0.650364   127A      0.654584   128A      0.657918  
     129A      0.663674   130A      0.670430   131A      0.696847  
     132A      0.705763   133A      0.713200   134A      0.728056  
     135A      0.742471   136A      0.759601   137A      0.772723  
     138A      0.787039   139A      0.792282   140A      0.804248  
     141A      0.808639   142A      0.819818   143A      0.828704  
     144A      0.833500   145A      0.841802   146A      0.845021  
     147A      0.850876   148A      0.861224   149A      0.871617  
     150A      0.877518   151A      0.879164   152A      0.892788  
     153A      0.902190   154A      0.906052   155A      0.912066  
     156A      0.917751   157A      0.919486   158A      0.929052  
     159A      0.938785   160A      0.945081   161A      0.953970  
     162A      0.959786   163A      0.969765   164A      0.972936  
     165A      0.982154   166A      0.989451   167A      0.995218  
     168A      1.007432   169A      1.009375   170A      1.012017  
     171A      1.019184   172A      1.028517   173A      1.039098  
     174A      1.051578   175A      1.056495   176A      1.061353  
     177A      1.070016   178A      1.077594   179A      1.089930  
     180A      1.097415   181A      1.106901   182A      1.114758  
     183A      1.119966   184A      1.128722   185A      1.135373  
     186A      1.141508   187A      1.146953   188A      1.148285  
     189A      1.156237   190A      1.162779   191A      1.172690  
     192A      1.174313   193A      1.184834   194A      1.190436  
     195A      1.193970   196A      1.208103   197A      1.222424  
     198A      1.228785   199A      1.242176   200A      1.245519  
     201A      1.253834   202A      1.257704   203A      1.272508  
     204A      1.283644   205A      1.292591   206A      1.296912  
     207A      1.302231   208A      1.315614   209A      1.321654  
     210A      1.335479   211A      1.340153   212A      1.346108  
     213A      1.369450   214A      1.380328   215A      1.387369  
     216A      1.391296   217A      1.396354   218A      1.405434  
     219A      1.422434   220A      1.437149   221A      1.439326  
     222A      1.454021   223A      1.457631   224A      1.471158  
     225A      1.480107   226A      1.485581   227A      1.489583  
     228A      1.513486   229A      1.537211   230A      1.541727  
     231A      1.557497   232A      1.559399   233A      1.574898  
     234A      1.587234   235A      1.591677   236A      1.610323  
     237A      1.613576   238A      1.621373   239A      1.629188  
     240A      1.638169   241A      1.648183   242A      1.650821  
     243A      1.669303   244A      1.674992   245A      1.679836  
     246A      1.689552   247A      1.696318   248A      1.711674  
     249A      1.720736   250A      1.723865   251A      1.726123  
     252A      1.732441   253A      1.749473   254A      1.756557  
     255A      1.772331   256A      1.777570   257A      1.789170  
     258A      1.794961   259A      1.810003   260A      1.815069  
     261A      1.830312   262A      1.834015   263A      1.842560  
     264A      1.851114   265A      1.859894   266A      1.874558  
     267A      1.876147   268A      1.895215   269A      1.904326  
     270A      1.924817   271A      1.929775   272A      1.938933  
     273A      1.944669   274A      1.962356   275A      1.977548  
     276A      1.985152   277A      1.995293   278A      2.017372  
     279A      2.023416   280A      2.041171   281A      2.050585  
     282A      2.052878   283A      2.063390   284A      2.068103  
     285A      2.093460   286A      2.095252   287A      2.117906  
     288A      2.120897   289A      2.144837   290A      2.158760  
     291A      2.174193   292A      2.185447   293A      2.188150  
     294A      2.206764   295A      2.233344   296A      2.239172  
     297A      2.261298   298A      2.266753   299A      2.283441  
     300A      2.288594   301A      2.300266   302A      2.308126  
     303A      2.313311   304A      2.325342   305A      2.326242  
     306A      2.352715   307A      2.374599   308A      2.380424  
     309A      2.393268   310A      2.407164   311A      2.421291  
     312A      2.448407   313A      2.457618   314A      2.481018  
     315A      2.501602   316A      2.530252   317A      2.558688  
     318A      2.574251   319A      2.657624   320A      2.668859  
     321A      2.725354   322A      2.741556   323A      2.750953  
     324A      2.778233   325A      2.781724   326A      2.813908  
     327A      2.845817   328A      2.868093   329A      2.874060  
     330A      2.901261   331A      2.938203   332A      2.955547  
     333A      2.971979   334A      3.011587   335A      3.030891  
     336A      3.044776   337A      3.066857   338A      3.120282  
     339A      3.142560   340A      3.163127   341A      3.183685  
     342A      3.198284   343A      3.226229   344A      3.262161  
     345A      3.274216   346A      3.295466   347A      3.347253  
     348A      3.388218   349A      3.410921   350A      3.436654  
     351A      3.447893   352A      3.483545   353A      3.498632  
     354A      3.506669   355A      3.532735   356A      3.543585  
     357A      3.578506   358A      3.591439   359A      3.612514  
     360A      3.626635   361A      3.662344   362A      3.675683  
     363A      3.681544   364A      3.686858   365A      3.690347  
     366A      3.702890   367A      3.722994   368A      3.738521  
     369A      3.759351   370A      3.768577   371A      3.777812  
     372A      3.783532   373A      3.801486   374A      3.813971  
     375A      3.819463   376A      3.825347   377A      3.848383  
     378A      3.865402   379A      3.868849   380A      3.899141  
     381A      3.920357   382A      3.933913   383A      3.945870  
     384A      3.960596   385A      3.977844   386A      4.002192  
     387A      4.011649   388A      4.022160   389A      4.030904  
     390A      4.041135   391A      4.044015   392A      4.063625  
     393A      4.090476   394A      4.101426   395A      4.105962  
     396A      4.127920   397A      4.150780   398A      4.165138  
     399A      4.166563   400A      4.181901   401A      4.207705  
     402A      4.218335   403A      4.240102   404A      4.249336  
     405A      4.251989   406A      4.263045   407A      4.279973  
     408A      4.291455   409A      4.313608   410A      4.340241  
     411A      4.348710   412A      4.379417   413A      4.380582  
     414A      4.419367   415A      4.441896   416A      4.445634  
     417A      4.460233   418A      4.474683   419A      4.506685  
     420A      4.525728   421A      4.532510   422A      4.561099  
     423A      4.570371   424A      4.579976   425A      4.615816  
     426A      4.622954   427A      4.642922   428A      4.654142  
     429A      4.672232   430A      4.684193   431A      4.717681  
     432A      4.730220   433A      4.754645   434A      4.778720  
     435A      4.791783   436A      4.811883   437A      4.821581  
     438A      4.834851   439A      4.862542   440A      4.880050  
     441A      4.888941   442A      4.891310   443A      4.905506  
     444A      4.908477   445A      4.928884   446A      4.934338  
     447A      4.956074   448A      4.980009   449A      4.994588  
     450A      5.013331   451A      5.024258   452A      5.047057  
     453A      5.066804   454A      5.072887   455A      5.082156  
     456A      5.114899   457A      5.130133   458A      5.152089  
     459A      5.166427   460A      5.178577   461A      5.210801  
     462A      5.216090   463A      5.240755   464A      5.252552  
     465A      5.266381   466A      5.280847   467A      5.317321  
     468A      5.330602   469A      5.354234   470A      5.360707  
     471A      5.378442   472A      5.398349   473A      5.422172  
     474A      5.462742   475A      5.465795   476A      5.478836  
     477A      5.503930   478A      5.515382   479A      5.532933  
     480A      5.558156   481A      5.574564   482A      5.620362  
     483A      5.633024   484A      5.641855   485A      5.666046  
     486A      5.671480   487A      5.691629   488A      5.716014  
     489A      5.747099   490A      5.761614   491A      5.802204  
     492A      5.812186   493A      5.823122   494A      5.874671  
     495A      5.887006   496A      5.913336   497A      6.006433  
     498A      6.045320   499A      6.068702   500A      6.117605  
     501A      6.144394   502A      6.173369   503A      6.201196  
     504A      6.218691   505A      6.230721   506A      6.260012  
     507A      6.283677   508A      6.312853   509A      6.343309  
     510A      6.358506   511A      6.420335   512A      6.470131  
     513A      6.505069   514A      6.599634   515A      6.729657  
     516A      6.757600   517A      6.792244   518A      6.836667  
     519A      6.858318   520A      6.899521   521A      6.913992  
     522A      6.945353   523A      7.101863   524A      7.110024  
     525A      7.131913   526A      7.257600   527A      7.291091  
     528A      7.338790   529A      7.413434   530A      7.483192  
     531A      7.526436   532A      7.554251   533A      7.670277  
     534A      7.694732   535A      7.758373   536A      7.790237  
     537A      7.945490   538A      7.999474   539A      8.073994  
     540A      8.107309   541A      8.206296   542A      8.416264  
     543A      8.438471   544A      8.726496   545A      8.789102  
     546A      9.306439   547A     17.263605   548A     17.958508  
     549A     18.114645   550A     18.298454   551A     18.872053  
     552A     19.143260  

    Final Occupation by Irrep:
              A 
    DOCC [    26 ]
    NA   [    26 ]
    NB   [    26 ]

  @DF-RHF Final Energy:  -308.25996965796242

   => Energetics <=

    Nuclear Repulsion Energy =            274.3708220332014776
    One-Electron Energy =                -964.7658787804023177
    Two-Electron Energy =                 382.1350870892384819
    Total Energy =                       -308.2599696579624151

Computation Completed


Properties will be evaluated at   0.000000,   0.000000,   0.000000 [a0]

Properties computed using the SCF density matrix


 Multipole Moments:

 ------------------------------------------------------------------------------------
     Multipole            Electronic (a.u.)      Nuclear  (a.u.)        Total (a.u.)
 ------------------------------------------------------------------------------------

 L = 1.  Multiply by 2.5417464519 to convert [e a0] to [Debye]
 Dipole X            :        -20.1172981           21.1927532            1.0754550
 Dipole Y            :         17.8845792          -18.4668931           -0.5823140
 Dipole Z            :          4.2612799           -4.3362109           -0.0749311
 Magnitude           :                                                    1.2252786

 ------------------------------------------------------------------------------------

*** tstop() called on ivy at Thu Feb 27 15:05:01 2025
Module time:
	user time   =      40.46 seconds =       0.67 minutes
	system time =       1.61 seconds =       0.03 minutes
	total time  =         21 seconds =       0.35 minutes
Total time:
	user time   =      40.46 seconds =       0.67 minutes
	system time =       1.61 seconds =       0.03 minutes
	total time  =         21 seconds =       0.35 minutes

  //>>>>>>>>>>>>>>>>>>>>>>>>>>>>>>>>>>>//
  //            Monomer A HF           //
  //<<<<<<<<<<<<<<<<<<<<<<<<<<<<<<<<<<<//

   => Libint2 <=

    Primary   basis highest AM E, G, H:  6, 6, 3
    Auxiliary basis highest AM E, G, H:  7, 7, 4
    Onebody   basis highest AM E, G, H:  -, -, -
    Solid Harmonics ordering:            Gaussian

*** tstart() called on ivy
*** at Thu Feb 27 15:05:01 2025

   => Loading Basis Set <=

    Name: AUG-CC-PVTZ
    Role: ORBITAL
    Keyword: BASIS
    atoms 1-2, 10-11 entry C          line   239 file /home/kchung25/miniconda3/envs/p4env/share/psi4/basis/aug-cc-pvtz.gbs 
    atoms 3, 12      entry O          line   331 file /home/kchung25/miniconda3/envs/p4env/share/psi4/basis/aug-cc-pvtz.gbs 
    atoms 4-9, 13-18 entry H          line    40 file /home/kchung25/miniconda3/envs/p4env/share/psi4/basis/aug-cc-pvtz.gbs 


         ---------------------------------------------------------
                                   SCF
               by Justin Turney, Rob Parrish, Andy Simmonett
                          and Daniel G. A. Smith
                              RHF Reference
                        2 Threads,   9536 MiB Core
         ---------------------------------------------------------

  ==> Geometry <==

    Molecular point group: c1
    Full point group: C1

    Geometry (in Angstrom), charge = 0, multiplicity = 1:

       Center              X                  Y                   Z               Mass       
    ------------   -----------------  -----------------  -----------------  -----------------
         C            2.303132000000     0.769097000000     0.598623000000    12.000000000000
         C            1.771037000000    -0.610986000000     0.306818000000    12.000000000000
         O            1.096965000000    -0.672425000000    -0.955992000000    15.994914619570
         H            1.720340000000    -0.407252000000    -1.638962000000     1.007825032230
         H            2.779410000000     0.788335000000     1.576531000000     1.007825032230
         H            1.492158000000     1.491832000000     0.589266000000     1.007825032230
         H            3.046547000000     1.060996000000    -0.141675000000     1.007825032230
         H            1.016509000000    -0.890517000000     1.035624000000     1.007825032230
         H            2.564219000000    -1.357732000000     0.335502000000     1.007825032230
      Gh(C)          -1.650825000000    -1.261172000000     0.511575000000    12.000000000000
      Gh(C)          -1.785969000000    -0.008614000000    -0.323983000000    12.000000000000
      Gh(O)          -0.574509000000     0.723337000000    -0.392210000000    15.994914619570
      Gh(H)           0.094003000000     0.137656000000    -0.776128000000     1.007825032230
      Gh(H)          -2.601194000000    -1.788706000000     0.572988000000     1.007825032230
      Gh(H)          -1.329157000000    -1.008249000000     1.518936000000     1.007825032230
      Gh(H)          -0.918174000000    -1.934185000000     0.070549000000     1.007825032230
      Gh(H)          -2.518005000000     0.663315000000     0.116807000000     1.007825032230
      Gh(H)          -2.135832000000    -0.264998000000    -1.326644000000     1.007825032230

  Running in c1 symmetry.

  Rotational constants: A =      0.17409  B =      0.05831  C =      0.05448 [cm^-1]
  Rotational constants: A =   5219.04830  B =   1748.13591  C =   1633.41201 [MHz]
  Nuclear repulsion =   81.897605397406679

  Charge       = 0
  Multiplicity = 1
  Electrons    = 26
  Nalpha       = 13
  Nbeta        = 13

  ==> Algorithm <==

  SCF Algorithm Type is DF.
  DIIS enabled.
  MOM disabled.
  Fractional occupation disabled.
  Guess Type is SAD.
  Energy threshold   = 1.00e-08
  Density threshold  = 1.00e-08
  Integral threshold = 1.00e-12

  ==> Primary Basis <==

  Basis Set: AUG-CC-PVTZ
    Blend: AUG-CC-PVTZ
    Number of shells: 192
    Number of basis functions: 552
    Number of Cartesian functions: 630
    Spherical Harmonics?: true
    Max angular momentum: 3

   => Loading Basis Set <=

    Name: (AUG-CC-PVTZ AUX)
    Role: JKFIT
    Keyword: DF_BASIS_SCF
    atoms 1-2, 10-11 entry C          line   162 file /home/kchung25/miniconda3/envs/p4env/share/psi4/basis/aug-cc-pvtz-jkfit.gbs 
    atoms 3, 12      entry O          line   286 file /home/kchung25/miniconda3/envs/p4env/share/psi4/basis/aug-cc-pvtz-jkfit.gbs 
    atoms 4-9, 13-18 entry H          line    70 file /home/kchung25/miniconda3/envs/p4env/share/psi4/basis/aug-cc-pvtz-jkfit.gbs 

  ==> Integral Setup <==

  ==> DiskDFJK: Density-Fitted J/K Matrices <==

    J tasked:                  Yes
    K tasked:                  Yes
    wK tasked:                  No
    OpenMP threads:              2
    Integrals threads:           2
    Memory [MiB]:             7152
    Algorithm:                Core
    Integral Cache:           LOAD
    Schwarz Cutoff:          1E-12
    Fitting Condition:       1E-10

   => Auxiliary Basis Set <=

  Basis Set: (AUG-CC-PVTZ AUX)
    Blend: AUG-CC-PVTZ-JKFIT
    Number of shells: 348
    Number of basis functions: 1176
    Number of Cartesian functions: 1446
    Spherical Harmonics?: true
    Max angular momentum: 4

  Minimum eigenvalue in the overlap matrix is 6.6496496844E-06.
  Reciprocal condition number of the overlap matrix is 3.2953207686E-07.
    Using symmetric orthogonalization.

  ==> Pre-Iterations <==

  SCF Guess: Superposition of Atomic Densities via on-the-fly atomic UHF (no occupation information).

   -------------------------
    Irrep   Nso     Nmo    
   -------------------------
     A        552     552 
   -------------------------
    Total     552     552
   -------------------------

  ==> Iterations <==

                           Total Energy        Delta E     RMS |[F,P]|

   @DF-RHF iter SAD:  -153.43065447358723   -1.53431e+02   0.00000e+00 
   @DF-RHF iter   1:  -154.00390802524774   -5.73254e-01   9.37088e-04 ADIIS/DIIS
   @DF-RHF iter   2:  -154.11537780684588   -1.11470e-01   4.95924e-04 ADIIS/DIIS
   @DF-RHF iter   3:  -154.14320646994429   -2.78287e-02   8.52032e-05 DIIS
   @DF-RHF iter   4:  -154.14479117769946   -1.58471e-03   3.29243e-05 DIIS
   @DF-RHF iter   5:  -154.14498700590860   -1.95828e-04   6.19428e-06 DIIS
   @DF-RHF iter   6:  -154.14499733024653   -1.03243e-05   1.41985e-06 DIIS
   @DF-RHF iter   7:  -154.14499806101733   -7.30771e-07   4.02103e-07 DIIS
   @DF-RHF iter   8:  -154.14499811562476   -5.46074e-08   1.28358e-07 DIIS
   @DF-RHF iter   9:  -154.14499812179059   -6.16583e-09   3.31156e-08 DIIS
   @DF-RHF iter  10:  -154.14499812223005   -4.39456e-10   6.37352e-09 DIIS
  Energy and wave function converged.


  ==> Post-Iterations <==

    Orbital Energies [Eh]
    ---------------------

    Doubly Occupied:                                                      

       1A    -20.553336     2A    -11.272947     3A    -11.217539  
       4A     -1.352657     5A     -1.016934     6A     -0.848659  
       7A     -0.684498     8A     -0.622408     9A     -0.609816  
      10A     -0.545554    11A     -0.525189    12A     -0.484034  
      13A     -0.444945  

    Virtual:                                                              

      14A      0.025395    15A      0.033304    16A      0.036668  
      17A      0.037934    18A      0.050292    19A      0.053372  
      20A      0.054952    21A      0.061868    22A      0.068762  
      23A      0.079061    24A      0.081229    25A      0.088174  
      26A      0.099946    27A      0.111840    28A      0.114729  
      29A      0.118243    30A      0.123553    31A      0.127280  
      32A      0.132227    33A      0.139020    34A      0.144337  
      35A      0.146391    36A      0.154639    37A      0.160042  
      38A      0.166178    39A      0.171789    40A      0.178786  
      41A      0.189504    42A      0.193966    43A      0.204992  
      44A      0.220068    45A      0.223937    46A      0.231920  
      47A      0.244467    48A      0.248952    49A      0.259711  
      50A      0.265415    51A      0.279104    52A      0.284421  
      53A      0.289735    54A      0.298002    55A      0.303080  
      56A      0.307793    57A      0.315879    58A      0.319322  
      59A      0.324766    60A      0.330158    61A      0.337258  
      62A      0.339218    63A      0.346934    64A      0.348392  
      65A      0.352940    66A      0.355431    67A      0.360202  
      68A      0.364274    69A      0.371450    70A      0.386459  
      71A      0.391216    72A      0.396405    73A      0.408426  
      74A      0.412905    75A      0.417246    76A      0.422313  
      77A      0.423160    78A      0.428750    79A      0.436693  
      80A      0.442600    81A      0.450146    82A      0.453026  
      83A      0.459463    84A      0.462290    85A      0.470503  
      86A      0.475974    87A      0.477776    88A      0.491082  
      89A      0.496525    90A      0.501953    91A      0.504762  
      92A      0.508202    93A      0.512287    94A      0.518183  
      95A      0.525558    96A      0.530855    97A      0.541459  
      98A      0.550163    99A      0.553655   100A      0.564540  
     101A      0.567156   102A      0.577080   103A      0.579013  
     104A      0.584582   105A      0.588120   106A      0.606104  
     107A      0.612895   108A      0.614870   109A      0.631200  
     110A      0.633300   111A      0.639771   112A      0.643011  
     113A      0.652893   114A      0.661891   115A      0.668736  
     116A      0.679080   117A      0.687630   118A      0.696577  
     119A      0.701034   120A      0.705048   121A      0.729042  
     122A      0.734667   123A      0.741990   124A      0.757965  
     125A      0.771591   126A      0.772897   127A      0.788103  
     128A      0.801983   129A      0.816902   130A      0.819465  
     131A      0.836115   132A      0.842456   133A      0.854489  
     134A      0.862119   135A      0.864412   136A      0.880676  
     137A      0.890822   138A      0.894915   139A      0.897449  
     140A      0.907113   141A      0.931725   142A      0.942284  
     143A      0.947072   144A      0.954475   145A      0.958896  
     146A      0.965268   147A      0.970367   148A      0.979849  
     149A      0.986140   150A      0.998335   151A      1.005786  
     152A      1.012771   153A      1.024004   154A      1.031443  
     155A      1.039069   156A      1.047560   157A      1.055449  
     158A      1.062285   159A      1.073081   160A      1.075206  
     161A      1.083273   162A      1.088261   163A      1.093771  
     164A      1.107359   165A      1.111199   166A      1.118145  
     167A      1.121965   168A      1.130170   169A      1.141131  
     170A      1.143447   171A      1.144045   172A      1.161000  
     173A      1.167790   174A      1.177580   175A      1.180149  
     176A      1.184849   177A      1.194418   178A      1.199813  
     179A      1.211776   180A      1.214847   181A      1.224379  
     182A      1.226035   183A      1.237058   184A      1.247026  
     185A      1.257143   186A      1.262441   187A      1.272913  
     188A      1.283438   189A      1.291804   190A      1.294455  
     191A      1.299054   192A      1.302576   193A      1.311647  
     194A      1.324335   195A      1.333958   196A      1.340591  
     197A      1.351955   198A      1.362172   199A      1.377539  
     200A      1.383412   201A      1.394498   202A      1.399263  
     203A      1.411533   204A      1.419269   205A      1.424301  
     206A      1.436895   207A      1.446783   208A      1.465049  
     209A      1.467335   210A      1.482268   211A      1.487769  
     212A      1.502534   213A      1.510084   214A      1.514600  
     215A      1.518584   216A      1.522252   217A      1.525321  
     218A      1.544729   219A      1.545719   220A      1.566243  
     221A      1.580642   222A      1.591839   223A      1.598625  
     224A      1.618871   225A      1.622257   226A      1.636773  
     227A      1.652827   228A      1.663322   229A      1.670910  
     230A      1.676357   231A      1.682056   232A      1.692740  
     233A      1.696796   234A      1.719278   235A      1.724894  
     236A      1.737744   237A      1.756714   238A      1.760410  
     239A      1.762223   240A      1.774506   241A      1.787833  
     242A      1.802115   243A      1.818310   244A      1.825899  
     245A      1.839399   246A      1.852028   247A      1.857375  
     248A      1.865165   249A      1.883903   250A      1.889575  
     251A      1.898079   252A      1.909979   253A      1.932996  
     254A      1.940171   255A      1.945843   256A      1.956807  
     257A      1.981111   258A      1.982840   259A      1.997706  
     260A      2.005520   261A      2.019019   262A      2.023885  
     263A      2.038760   264A      2.045001   265A      2.050163  
     266A      2.060514   267A      2.074019   268A      2.097936  
     269A      2.107779   270A      2.133919   271A      2.140664  
     272A      2.146039   273A      2.160086   274A      2.179311  
     275A      2.190246   276A      2.203957   277A      2.215984  
     278A      2.219980   279A      2.227373   280A      2.234742  
     281A      2.247941   282A      2.264551   283A      2.278860  
     284A      2.288978   285A      2.299051   286A      2.313837  
     287A      2.338115   288A      2.343592   289A      2.366176  
     290A      2.368208   291A      2.382099   292A      2.402453  
     293A      2.422008   294A      2.436380   295A      2.445012  
     296A      2.474625   297A      2.477484   298A      2.490277  
     299A      2.510306   300A      2.530113   301A      2.577529  
     302A      2.588335   303A      2.600127   304A      2.621060  
     305A      2.645698   306A      2.651927   307A      2.682674  
     308A      2.709572   309A      2.737267   310A      2.757158  
     311A      2.763834   312A      2.794890   313A      2.809210  
     314A      2.826954   315A      2.849602   316A      2.878459  
     317A      2.882750   318A      2.896333   319A      2.920422  
     320A      2.961302   321A      2.969406   322A      2.996308  
     323A      3.025606   324A      3.056064   325A      3.076780  
     326A      3.099469   327A      3.131954   328A      3.153863  
     329A      3.174432   330A      3.204200   331A      3.223672  
     332A      3.245731   333A      3.289401   334A      3.292528  
     335A      3.321289   336A      3.333153   337A      3.413143  
     338A      3.467518   339A      3.479160   340A      3.521752  
     341A      3.537202   342A      3.551042   343A      3.564249  
     344A      3.576277   345A      3.632505   346A      3.646911  
     347A      3.678726   348A      3.686464   349A      3.687610  
     350A      3.708516   351A      3.744755   352A      3.773700  
     353A      3.793195   354A      3.818327   355A      3.828624  
     356A      3.833926   357A      3.847593   358A      3.866045  
     359A      3.908623   360A      3.943521   361A      3.954479  
     362A      3.967276   363A      3.981378   364A      4.015880  
     365A      4.026814   366A      4.034102   367A      4.073137  
     368A      4.084784   369A      4.098786   370A      4.150047  
     371A      4.160042   372A      4.165475   373A      4.175599  
     374A      4.182109   375A      4.194484   376A      4.214868  
     377A      4.226715   378A      4.248934   379A      4.261148  
     380A      4.274626   381A      4.281107   382A      4.290583  
     383A      4.298759   384A      4.311535   385A      4.342079  
     386A      4.358509   387A      4.365243   388A      4.415663  
     389A      4.428725   390A      4.455490   391A      4.466425  
     392A      4.484337   393A      4.498992   394A      4.520658  
     395A      4.532078   396A      4.560915   397A      4.574739  
     398A      4.579377   399A      4.602219   400A      4.620728  
     401A      4.639185   402A      4.646212   403A      4.667816  
     404A      4.668506   405A      4.693483   406A      4.702654  
     407A      4.739997   408A      4.748570   409A      4.750420  
     410A      4.762559   411A      4.791649   412A      4.817943  
     413A      4.828869   414A      4.831281   415A      4.860867  
     416A      4.869975   417A      4.887742   418A      4.903190  
     419A      4.922405   420A      4.932584   421A      4.953921  
     422A      4.975796   423A      4.991614   424A      5.011222  
     425A      5.036845   426A      5.038404   427A      5.047653  
     428A      5.065846   429A      5.071297   430A      5.093022  
     431A      5.114792   432A      5.123352   433A      5.143245  
     434A      5.165773   435A      5.190925   436A      5.209012  
     437A      5.231078   438A      5.242687   439A      5.257666  
     440A      5.294389   441A      5.313420   442A      5.330047  
     443A      5.339226   444A      5.371129   445A      5.383900  
     446A      5.403031   447A      5.412290   448A      5.429168  
     449A      5.450974   450A      5.462680   451A      5.469117  
     452A      5.491143   453A      5.508737   454A      5.555469  
     455A      5.560781   456A      5.574097   457A      5.602408  
     458A      5.611101   459A      5.615266   460A      5.640828  
     461A      5.650800   462A      5.662521   463A      5.693217  
     464A      5.702112   465A      5.723991   466A      5.746277  
     467A      5.773538   468A      5.784176   469A      5.793375  
     470A      5.830029   471A      5.841796   472A      5.880109  
     473A      5.901920   474A      5.935800   475A      5.966746  
     476A      6.034624   477A      6.057248   478A      6.065643  
     479A      6.130529   480A      6.150884   481A      6.182918  
     482A      6.193348   483A      6.217005   484A      6.226101  
     485A      6.243816   486A      6.262353   487A      6.297846  
     488A      6.331002   489A      6.344692   490A      6.375671  
     491A      6.425622   492A      6.461697   493A      6.508723  
     494A      6.547977   495A      6.761344   496A      6.762482  
     497A      6.801816   498A      6.818741   499A      6.888675  
     500A      6.917768   501A      6.968774   502A      7.009261  
     503A      7.078623   504A      7.126354   505A      7.179395  
     506A      7.199946   507A      7.261962   508A      7.306258  
     509A      7.395154   510A      7.488014   511A      7.549737  
     512A      7.587612   513A      7.740067   514A      7.815606  
     515A      7.861309   516A      7.884311   517A      7.909455  
     518A      7.940770   519A      7.945258   520A      8.007620  
     521A      8.038403   522A      8.095665   523A      8.158724  
     524A      8.256647   525A      8.263707   526A      8.331892  
     527A      8.394668   528A      8.410056   529A      8.448547  
     530A      8.599159   531A      8.779574   532A      8.898979  
     533A      8.926360   534A      9.017927   535A      9.357607  
     536A     10.108941   537A     10.248587   538A     10.434075  
     539A     10.571776   540A     10.793007   541A     10.842388  
     542A     11.296736   543A     12.248567   544A     13.077406  
     545A     13.517000   546A     14.658271   547A     17.583093  
     548A     18.147396   549A     18.961599   550A     53.238252  
     551A     54.989181   552A     69.774050  

    Final Occupation by Irrep:
              A 
    DOCC [    13 ]
    NA   [    13 ]
    NB   [    13 ]

  @DF-RHF Final Energy:  -154.14499812223005

   => Energetics <=

    Nuclear Repulsion Energy =             81.8976053974066787
    One-Electron Energy =                -371.7281728030862382
    Two-Electron Energy =                 135.6855692834495244
    Total Energy =                       -154.1449981222300494

Computation Completed


Properties will be evaluated at   0.000000,   0.000000,   0.000000 [a0]

Properties computed using the SCF density matrix


 Multipole Moments:

 ------------------------------------------------------------------------------------
     Multipole            Electronic (a.u.)      Nuclear  (a.u.)        Total (a.u.)
 ------------------------------------------------------------------------------------

 L = 1.  Multiply by 2.5417464519 to convert [e a0] to [Debye]
 Dipole X            :        -85.9454202           86.6248887            0.6794685
 Dipole Y            :          7.3055813           -7.0771604            0.2284209
 Dipole Z            :          1.0465804           -0.8673919            0.1791886
 Magnitude           :                                                    0.7388925

 ------------------------------------------------------------------------------------

*** tstop() called on ivy at Thu Feb 27 15:05:16 2025
Module time:
	user time   =      27.49 seconds =       0.46 minutes
	system time =       0.69 seconds =       0.01 minutes
	total time  =         15 seconds =       0.25 minutes
Total time:
	user time   =      67.95 seconds =       1.13 minutes
	system time =       2.30 seconds =       0.04 minutes
	total time  =         36 seconds =       0.60 minutes

  //>>>>>>>>>>>>>>>>>>>>>>>>>>>>>>>>>>>//
  //            Monomer B HF           //
  //<<<<<<<<<<<<<<<<<<<<<<<<<<<<<<<<<<<//

   => Libint2 <=

    Primary   basis highest AM E, G, H:  6, 6, 3
    Auxiliary basis highest AM E, G, H:  7, 7, 4
    Onebody   basis highest AM E, G, H:  -, -, -
    Solid Harmonics ordering:            Gaussian

*** tstart() called on ivy
*** at Thu Feb 27 15:05:16 2025

   => Loading Basis Set <=

    Name: AUG-CC-PVTZ
    Role: ORBITAL
    Keyword: BASIS
    atoms 1-2, 10-11 entry C          line   239 file /home/kchung25/miniconda3/envs/p4env/share/psi4/basis/aug-cc-pvtz.gbs 
    atoms 3, 12      entry O          line   331 file /home/kchung25/miniconda3/envs/p4env/share/psi4/basis/aug-cc-pvtz.gbs 
    atoms 4-9, 13-18 entry H          line    40 file /home/kchung25/miniconda3/envs/p4env/share/psi4/basis/aug-cc-pvtz.gbs 


         ---------------------------------------------------------
                                   SCF
               by Justin Turney, Rob Parrish, Andy Simmonett
                          and Daniel G. A. Smith
                              RHF Reference
                        2 Threads,   9536 MiB Core
         ---------------------------------------------------------

  ==> Geometry <==

    Molecular point group: c1
    Full point group: C1

    Geometry (in Angstrom), charge = 0, multiplicity = 1:

       Center              X                  Y                   Z               Mass       
    ------------   -----------------  -----------------  -----------------  -----------------
      Gh(C)           2.303132000000     0.769097000000     0.598623000000    12.000000000000
      Gh(C)           1.771037000000    -0.610986000000     0.306818000000    12.000000000000
      Gh(O)           1.096965000000    -0.672425000000    -0.955992000000    15.994914619570
      Gh(H)           1.720340000000    -0.407252000000    -1.638962000000     1.007825032230
      Gh(H)           2.779410000000     0.788335000000     1.576531000000     1.007825032230
      Gh(H)           1.492158000000     1.491832000000     0.589266000000     1.007825032230
      Gh(H)           3.046547000000     1.060996000000    -0.141675000000     1.007825032230
      Gh(H)           1.016509000000    -0.890517000000     1.035624000000     1.007825032230
      Gh(H)           2.564219000000    -1.357732000000     0.335502000000     1.007825032230
         C           -1.650825000000    -1.261172000000     0.511575000000    12.000000000000
         C           -1.785969000000    -0.008614000000    -0.323983000000    12.000000000000
         O           -0.574509000000     0.723337000000    -0.392210000000    15.994914619570
         H            0.094003000000     0.137656000000    -0.776128000000     1.007825032230
         H           -2.601194000000    -1.788706000000     0.572988000000     1.007825032230
         H           -1.329157000000    -1.008249000000     1.518936000000     1.007825032230
         H           -0.918174000000    -1.934185000000     0.070549000000     1.007825032230
         H           -2.518005000000     0.663315000000     0.116807000000     1.007825032230
         H           -2.135832000000    -0.264998000000    -1.326644000000     1.007825032230

  Running in c1 symmetry.

  Rotational constants: A =      0.17409  B =      0.05831  C =      0.05448 [cm^-1]
  Rotational constants: A =   5219.04830  B =   1748.13591  C =   1633.41201 [MHz]
  Nuclear repulsion =   82.079493489535281

  Charge       = 0
  Multiplicity = 1
  Electrons    = 26
  Nalpha       = 13
  Nbeta        = 13

  ==> Algorithm <==

  SCF Algorithm Type is DF.
  DIIS enabled.
  MOM disabled.
  Fractional occupation disabled.
  Guess Type is SAD.
  Energy threshold   = 1.00e-08
  Density threshold  = 1.00e-08
  Integral threshold = 1.00e-12

  ==> Primary Basis <==

  Basis Set: AUG-CC-PVTZ
    Blend: AUG-CC-PVTZ
    Number of shells: 192
    Number of basis functions: 552
    Number of Cartesian functions: 630
    Spherical Harmonics?: true
    Max angular momentum: 3

   => Loading Basis Set <=

    Name: (AUG-CC-PVTZ AUX)
    Role: JKFIT
    Keyword: DF_BASIS_SCF
    atoms 1-2, 10-11 entry C          line   162 file /home/kchung25/miniconda3/envs/p4env/share/psi4/basis/aug-cc-pvtz-jkfit.gbs 
    atoms 3, 12      entry O          line   286 file /home/kchung25/miniconda3/envs/p4env/share/psi4/basis/aug-cc-pvtz-jkfit.gbs 
    atoms 4-9, 13-18 entry H          line    70 file /home/kchung25/miniconda3/envs/p4env/share/psi4/basis/aug-cc-pvtz-jkfit.gbs 

  ==> Integral Setup <==

  ==> DiskDFJK: Density-Fitted J/K Matrices <==

    J tasked:                  Yes
    K tasked:                  Yes
    wK tasked:                  No
    OpenMP threads:              2
    Integrals threads:           2
    Memory [MiB]:             7152
    Algorithm:                Core
    Integral Cache:           LOAD
    Schwarz Cutoff:          1E-12
    Fitting Condition:       1E-10

   => Auxiliary Basis Set <=

  Basis Set: (AUG-CC-PVTZ AUX)
    Blend: AUG-CC-PVTZ-JKFIT
    Number of shells: 348
    Number of basis functions: 1176
    Number of Cartesian functions: 1446
    Spherical Harmonics?: true
    Max angular momentum: 4

  Minimum eigenvalue in the overlap matrix is 6.6496496844E-06.
  Reciprocal condition number of the overlap matrix is 3.2953207686E-07.
    Using symmetric orthogonalization.

  ==> Pre-Iterations <==

  SCF Guess: Superposition of Atomic Densities via on-the-fly atomic UHF (no occupation information).

   -------------------------
    Irrep   Nso     Nmo    
   -------------------------
     A        552     552 
   -------------------------
    Total     552     552
   -------------------------

  ==> Iterations <==

                           Total Energy        Delta E     RMS |[F,P]|

   @DF-RHF iter SAD:  -153.44957103415493   -1.53450e+02   0.00000e+00 
   @DF-RHF iter   1:  -154.00365099766793   -5.54080e-01   9.36486e-04 ADIIS/DIIS
   @DF-RHF iter   2:  -154.11542016505203   -1.11769e-01   4.94363e-04 ADIIS/DIIS
   @DF-RHF iter   3:  -154.14320402962278   -2.77839e-02   8.47288e-05 DIIS
   @DF-RHF iter   4:  -154.14478881455221   -1.58478e-03   3.26746e-05 DIIS
   @DF-RHF iter   5:  -154.14498172567167   -1.92911e-04   6.22940e-06 DIIS
   @DF-RHF iter   6:  -154.14499221874374   -1.04931e-05   1.44234e-06 DIIS
   @DF-RHF iter   7:  -154.14499297735043   -7.58607e-07   4.10606e-07 DIIS
   @DF-RHF iter   8:  -154.14499303444293   -5.70925e-08   1.30439e-07 DIIS
   @DF-RHF iter   9:  -154.14499304078174   -6.33881e-09   3.35581e-08 DIIS
   @DF-RHF iter  10:  -154.14499304122799   -4.46249e-10   6.46868e-09 DIIS
  Energy and wave function converged.


  ==> Post-Iterations <==

    Orbital Energies [Eh]
    ---------------------

    Doubly Occupied:                                                      

       1A    -20.555941     2A    -11.272333     3A    -11.216807  
       4A     -1.358209     5A     -1.014832     6A     -0.848156  
       7A     -0.686909     8A     -0.625168     9A     -0.609667  
      10A     -0.545447    11A     -0.527096    12A     -0.482954  
      13A     -0.443103  

    Virtual:                                                              

      14A      0.021816    15A      0.033414    16A      0.036397  
      17A      0.038363    18A      0.050302    19A      0.052609  
      20A      0.053890    21A      0.063124    22A      0.070946  
      23A      0.076636    24A      0.079719    25A      0.088590  
      26A      0.092153    27A      0.111766    28A      0.113549  
      29A      0.116915    30A      0.118540    31A      0.127565  
      32A      0.134186    33A      0.136906    34A      0.142143  
      35A      0.150829    36A      0.152941    37A      0.155306  
      38A      0.165934    39A      0.167604    40A      0.179480  
      41A      0.184224    42A      0.190226    43A      0.208856  
      44A      0.216194    45A      0.221866    46A      0.237937  
      47A      0.242738    48A      0.251326    49A      0.255892  
      50A      0.264287    51A      0.275915    52A      0.278300  
      53A      0.290208    54A      0.291136    55A      0.298965  
      56A      0.306309    57A      0.315252    58A      0.317977  
      59A      0.328701    60A      0.331288    61A      0.334985  
      62A      0.338287    63A      0.345382    64A      0.346668  
      65A      0.352510    66A      0.354873    67A      0.361814  
      68A      0.362900    69A      0.370025    70A      0.377052  
      71A      0.384422    72A      0.392211    73A      0.395907  
      74A      0.404372    75A      0.408819    76A      0.423896  
      77A      0.428533    78A      0.429356    79A      0.436231  
      80A      0.440837    81A      0.444012    82A      0.446258  
      83A      0.455693    84A      0.463555    85A      0.466445  
      86A      0.470511    87A      0.474980    88A      0.488115  
      89A      0.495706    90A      0.506985    91A      0.509191  
      92A      0.514235    93A      0.517275    94A      0.521341  
      95A      0.528050    96A      0.529477    97A      0.534554  
      98A      0.541316    99A      0.547317   100A      0.553697  
     101A      0.566111   102A      0.568684   103A      0.580343  
     104A      0.587338   105A      0.593188   106A      0.606253  
     107A      0.611990   108A      0.618997   109A      0.625659  
     110A      0.633711   111A      0.642550   112A      0.647943  
     113A      0.649851   114A      0.659893   115A      0.663876  
     116A      0.668091   117A      0.679876   118A      0.686377  
     119A      0.699506   120A      0.707749   121A      0.712702  
     122A      0.719208   123A      0.739808   124A      0.745254  
     125A      0.752839   126A      0.773781   127A      0.787018  
     128A      0.803350   129A      0.811000   130A      0.816242  
     131A      0.823425   132A      0.830518   133A      0.839601  
     134A      0.849254   135A      0.860563   136A      0.878902  
     137A      0.890013   138A      0.891542   139A      0.900382  
     140A      0.909063   141A      0.916984   142A      0.931719  
     143A      0.942146   144A      0.951357   145A      0.955920  
     146A      0.963588   147A      0.971529   148A      0.977576  
     149A      0.990632   150A      0.992598   151A      0.998588  
     152A      1.012890   153A      1.022931   154A      1.030699  
     155A      1.038510   156A      1.046146   157A      1.050815  
     158A      1.061228   159A      1.066134   160A      1.071698  
     161A      1.072375   162A      1.089651   163A      1.093110  
     164A      1.110212   165A      1.112395   166A      1.121278  
     167A      1.123089   168A      1.124644   169A      1.132527  
     170A      1.138781   171A      1.151221   172A      1.153033  
     173A      1.162628   174A      1.169230   175A      1.179141  
     176A      1.183675   177A      1.195386   178A      1.204068  
     179A      1.209728   180A      1.218448   181A      1.224312  
     182A      1.229331   183A      1.233907   184A      1.244233  
     185A      1.252810   186A      1.256028   187A      1.259098  
     188A      1.270230   189A      1.273911   190A      1.282330  
     191A      1.303100   192A      1.306447   193A      1.313873  
     194A      1.327326   195A      1.336218   196A      1.343199  
     197A      1.351649   198A      1.360366   199A      1.364361  
     200A      1.373017   201A      1.384440   202A      1.393928  
     203A      1.403020   204A      1.405460   205A      1.417459  
     206A      1.421006   207A      1.437506   208A      1.449190  
     209A      1.462716   210A      1.465483   211A      1.480193  
     212A      1.484728   213A      1.496400   214A      1.510642  
     215A      1.514344   216A      1.529957   217A      1.538494  
     218A      1.543945   219A      1.553324   220A      1.561669  
     221A      1.563490   222A      1.576956   223A      1.590999  
     224A      1.608590   225A      1.619714   226A      1.621735  
     227A      1.648291   228A      1.653905   229A      1.660102  
     230A      1.671317   231A      1.686462   232A      1.693199  
     233A      1.701028   234A      1.710237   235A      1.724133  
     236A      1.730811   237A      1.737749   238A      1.745295  
     239A      1.756616   240A      1.772293   241A      1.777776  
     242A      1.794837   243A      1.812930   244A      1.819706  
     245A      1.822809   246A      1.827083   247A      1.841834  
     248A      1.848883   249A      1.854433   250A      1.876919  
     251A      1.889958   252A      1.896130   253A      1.912243  
     254A      1.925172   255A      1.945093   256A      1.948607  
     257A      1.959825   258A      1.979624   259A      1.987608  
     260A      1.989201   261A      2.002605   262A      2.023662  
     263A      2.027995   264A      2.051751   265A      2.060409  
     266A      2.074036   267A      2.082280   268A      2.097062  
     269A      2.103993   270A      2.111405   271A      2.117458  
     272A      2.130502   273A      2.142325   274A      2.152958  
     275A      2.162846   276A      2.172364   277A      2.184271  
     278A      2.209314   279A      2.221620   280A      2.234141  
     281A      2.238455   282A      2.252073   283A      2.267182  
     284A      2.278436   285A      2.290150   286A      2.304794  
     287A      2.308510   288A      2.328969   289A      2.345835  
     290A      2.356454   291A      2.374022   292A      2.383547  
     293A      2.388312   294A      2.418180   295A      2.442685  
     296A      2.457874   297A      2.476394   298A      2.496531  
     299A      2.505341   300A      2.533488   301A      2.541806  
     302A      2.564022   303A      2.590414   304A      2.601808  
     305A      2.640568   306A      2.652804   307A      2.686436  
     308A      2.704142   309A      2.742296   310A      2.747485  
     311A      2.773743   312A      2.784226   313A      2.814083  
     314A      2.817721   315A      2.855063   316A      2.864486  
     317A      2.870252   318A      2.912483   319A      2.935251  
     320A      2.959497   321A      2.968786   322A      3.000719  
     323A      3.017648   324A      3.044826   325A      3.058994  
     326A      3.090865   327A      3.120096   328A      3.164060  
     329A      3.176050   330A      3.187908   331A      3.227356  
     332A      3.242245   333A      3.258210   334A      3.308563  
     335A      3.326967   336A      3.357626   337A      3.383109  
     338A      3.432684   339A      3.467583   340A      3.473804  
     341A      3.487906   342A      3.525163   343A      3.548712  
     344A      3.574452   345A      3.581447   346A      3.599682  
     347A      3.635015   348A      3.673272   349A      3.690779  
     350A      3.712816   351A      3.718119   352A      3.738139  
     353A      3.760278   354A      3.782244   355A      3.785031  
     356A      3.814463   357A      3.823529   358A      3.851255  
     359A      3.872020   360A      3.888113   361A      3.928267  
     362A      3.938091   363A      3.986858   364A      3.998805  
     365A      4.001515   366A      4.028823   367A      4.040043  
     368A      4.065844   369A      4.085320   370A      4.121264  
     371A      4.140371   372A      4.158956   373A      4.185129  
     374A      4.192957   375A      4.209237   376A      4.218043  
     377A      4.232589   378A      4.239965   379A      4.258945  
     380A      4.286844   381A      4.287301   382A      4.304846  
     383A      4.333449   384A      4.337544   385A      4.353003  
     386A      4.363102   387A      4.386408   388A      4.404816  
     389A      4.423025   390A      4.448805   391A      4.459918  
     392A      4.476026   393A      4.502295   394A      4.523537  
     395A      4.532383   396A      4.542952   397A      4.555326  
     398A      4.568429   399A      4.584581   400A      4.617354  
     401A      4.638114   402A      4.644583   403A      4.651659  
     404A      4.665458   405A      4.675462   406A      4.693755  
     407A      4.708784   408A      4.726693   409A      4.747260  
     410A      4.764192   411A      4.792129   412A      4.810128  
     413A      4.832921   414A      4.836457   415A      4.850659  
     416A      4.860620   417A      4.871123   418A      4.893486  
     419A      4.908740   420A      4.945360   421A      4.953283  
     422A      4.965000   423A      4.982944   424A      4.998198  
     425A      5.009585   426A      5.041932   427A      5.062117  
     428A      5.071765   429A      5.077423   430A      5.093954  
     431A      5.111771   432A      5.133002   433A      5.147758  
     434A      5.163573   435A      5.190957   436A      5.195296  
     437A      5.213348   438A      5.238369   439A      5.260697  
     440A      5.273746   441A      5.305293   442A      5.311236  
     443A      5.344525   444A      5.353652   445A      5.368393  
     446A      5.390001   447A      5.402054   448A      5.417632  
     449A      5.442063   450A      5.454092   451A      5.474519  
     452A      5.484921   453A      5.490979   454A      5.520516  
     455A      5.537650   456A      5.557277   457A      5.571910  
     458A      5.610718   459A      5.635779   460A      5.638399  
     461A      5.647233   462A      5.659827   463A      5.672494  
     464A      5.698413   465A      5.708210   466A      5.732031  
     467A      5.746282   468A      5.764630   469A      5.798758  
     470A      5.807112   471A      5.832426   472A      5.868265  
     473A      5.895842   474A      5.907346   475A      5.935893  
     476A      6.004666   477A      6.012902   478A      6.063445  
     479A      6.100085   480A      6.114833   481A      6.115761  
     482A      6.173774   483A      6.186477   484A      6.205466  
     485A      6.239024   486A      6.250892   487A      6.276623  
     488A      6.289600   489A      6.345829   490A      6.369450  
     491A      6.381408   492A      6.457508   493A      6.504289  
     494A      6.570812   495A      6.709795   496A      6.726482  
     497A      6.784087   498A      6.843012   499A      6.877387  
     500A      6.897810   501A      6.923060   502A      7.009324  
     503A      7.035653   504A      7.057049   505A      7.082559  
     506A      7.137189   507A      7.223883   508A      7.287102  
     509A      7.330932   510A      7.471985   511A      7.512986  
     512A      7.629036   513A      7.682669   514A      7.704361  
     515A      7.790992   516A      7.843096   517A      7.870612  
     518A      7.901840   519A      7.940550   520A      7.975169  
     521A      8.033090   522A      8.080398   523A      8.121107  
     524A      8.210595   525A      8.250025   526A      8.279788  
     527A      8.372202   528A      8.395959   529A      8.500165  
     530A      8.552834   531A      8.601850   532A      8.635173  
     533A      8.914666   534A      9.039402   535A      9.257849  
     536A     10.207462   537A     10.309505   538A     10.422754  
     539A     10.644908   540A     10.780819   541A     11.011866  
     542A     11.167243   543A     12.639360   544A     12.855689  
     545A     13.649260   546A     14.240288   547A     17.918111  
     548A     18.176753   549A     18.974452   550A     53.604181  
     551A     54.899319   552A     69.176682  

    Final Occupation by Irrep:
              A 
    DOCC [    13 ]
    NA   [    13 ]
    NB   [    13 ]

  @DF-RHF Final Energy:  -154.14499304122799

   => Energetics <=

    Nuclear Repulsion Energy =             82.0794934895352810
    One-Electron Energy =                -372.0757278736573426
    Two-Electron Energy =                 135.8512413428940988
    Total Energy =                       -154.1449930412279912

Computation Completed


Properties will be evaluated at   0.000000,   0.000000,   0.000000 [a0]

Properties computed using the SCF density matrix


 Multipole Moments:

 ------------------------------------------------------------------------------------
     Multipole            Electronic (a.u.)      Nuclear  (a.u.)        Total (a.u.)
 ------------------------------------------------------------------------------------

 L = 1.  Multiply by 2.5417464519 to convert [e a0] to [Debye]
 Dipole X            :         65.2974217          -65.4321356           -0.1347139
 Dipole Y            :         10.6963773          -11.3897327           -0.6933555
 Dipole Z            :          3.3035336           -3.4688191           -0.1652855
 Magnitude           :                                                    0.7254026

 ------------------------------------------------------------------------------------

*** tstop() called on ivy at Thu Feb 27 15:05:31 2025
Module time:
	user time   =      27.70 seconds =       0.46 minutes
	system time =       0.65 seconds =       0.01 minutes
	total time  =         15 seconds =       0.25 minutes
Total time:
	user time   =      95.65 seconds =       1.59 minutes
	system time =       2.95 seconds =       0.05 minutes
	total time  =         51 seconds =       0.85 minutes
  Constructing Basis Sets for SAPT...

   => Loading Basis Set <=

    Name: (AUG-CC-PVTZ AUX)
    Role: RIFIT
    Keyword: DF_BASIS_SAPT
    atoms 1-2, 10-11 entry C          line   148 file /home/kchung25/miniconda3/envs/p4env/share/psi4/basis/aug-cc-pvtz-ri.gbs 
    atoms 3, 12      entry O          line   264 file /home/kchung25/miniconda3/envs/p4env/share/psi4/basis/aug-cc-pvtz-ri.gbs 
    atoms 4-9, 13-18 entry H          line    30 file /home/kchung25/miniconda3/envs/p4env/share/psi4/basis/aug-cc-pvtz-ri.gbs 

   => Loading Basis Set <=

    Name: (AUG-CC-PVTZ AUX)
    Role: JKFIT
    Keyword: DF_BASIS_ELST
    atoms 1-2, 10-11 entry C          line   162 file /home/kchung25/miniconda3/envs/p4env/share/psi4/basis/aug-cc-pvtz-jkfit.gbs 
    atoms 3, 12      entry O          line   286 file /home/kchung25/miniconda3/envs/p4env/share/psi4/basis/aug-cc-pvtz-jkfit.gbs 
    atoms 4-9, 13-18 entry H          line    70 file /home/kchung25/miniconda3/envs/p4env/share/psi4/basis/aug-cc-pvtz-jkfit.gbs 


  //>>>>>>>>>>>>>>>>>>>>>>>>>>>>>>>>>>>//
  //               SAPT2+              //
  //<<<<<<<<<<<<<<<<<<<<<<<<<<<<<<<<<<<//


*** tstart() called on ivy
*** at Thu Feb 27 15:05:31 2025

        SAPT2+  
    Ed Hohenstein
     6 June 2009

      Orbital Information
  --------------------------
    NSO        =       552
    NMO        =       552
    NRI        =      1188
    NOCC A     =        13
    NOCC B     =        13
    FOCC A     =         0
    FOCC B     =         0
    NVIR A     =       539
    NVIR B     =       539

    Estimated memory usage: 3939.5 MB

    Natural Orbital Cutoff:   1.000E-06
    Disp(T3) Truncation:            Yes
    CCD (vv|vv) Truncation:         Yes
    MBPT T2 Truncation:             Yes

    Monomer A: 296 virtual orbitals dropped
    Monomer B: 301 virtual orbitals dropped

    Elst10,r            =    -0.064493429325 [Eh]
    Exch10 (S^2)        =     0.122695734782 [Eh]
    Exch10              =     0.129097573701 [Eh]
    Ind20,r (A<-B)      =    -0.033291376060 [Eh]
    Ind20,r (B<-A)      =    -0.035832648733 [Eh]
    Ind20,r             =    -0.069124024793 [Eh]
    Exch-Ind20,r (A<-B) =     0.015714188052 [Eh]
    Exch-Ind20,r (B<-A) =     0.031412179266 [Eh]
    Exch-Ind20,r        =     0.047126367317 [Eh]
    Disp20              =    -0.031520732096 [Eh]
    Disp20 (NO)         =    -0.028470194179 [Eh]
    Exch-Disp20         =     0.007282267394 [Eh]
    Elst12,r            =    -0.002754918931 [Eh]
    Exch11              =     0.000586995866 [Eh]
    Exch12              =     0.010569355681 [Eh]
    Ind22               =    -0.010367173247 [Eh]
    Disp21              =     0.003418925007 [Eh]
    Disp22 (SDQ)        =    -0.000534600175 [Eh]

    (i =   1 of  13)         67 seconds
    (i =   2 of  13)        134 seconds
    (i =   3 of  13)        200 seconds
    (i =   4 of  13)        267 seconds
    (i =   5 of  13)        334 seconds
    (i =   6 of  13)        401 seconds
    (i =   7 of  13)        467 seconds
    (i =   8 of  13)        534 seconds
    (i =   9 of  13)        601 seconds
    (i =  10 of  13)        668 seconds
    (i =  11 of  13)        734 seconds
    (i =  12 of  13)        798 seconds
    (i =  13 of  13)        861 seconds

    Disp220 (T)         =    -0.002073667340 [Eh]

    (i =   1 of  13)         61 seconds
    (i =   2 of  13)        122 seconds
    (i =   3 of  13)        183 seconds
    (i =   4 of  13)        244 seconds
    (i =   5 of  13)        306 seconds
    (i =   6 of  13)        367 seconds
    (i =   7 of  13)        428 seconds
    (i =   8 of  13)        489 seconds
    (i =   9 of  13)        550 seconds
    (i =  10 of  13)        612 seconds
    (i =  11 of  13)        673 seconds
    (i =  12 of  13)        734 seconds
    (i =  13 of  13)        795 seconds

    Disp202 (T)         =    -0.002352498838 [Eh]

    Disp22 (T)          =    -0.004426166178 [Eh]

    Est. Disp220 (T)    =    -0.002295857635 [Eh]
    Est. Disp202 (T)    =    -0.002604565503 [Eh]

    Est. Disp22 (T)     =    -0.004900423138 [Eh]

    SAPT Results 
  --------------------------------------------------------------------------------------------------------
    Electrostatics                -67.24834826 [mEh]     -42.19897563 [kcal/mol]    -176.56051402 [kJ/mol]
      Elst10,r                    -64.49342932 [mEh]     -40.47023790 [kcal/mol]    -169.32747536 [kJ/mol]
      Elst12,r                     -2.75491893 [mEh]      -1.72873773 [kcal/mol]      -7.23303866 [kJ/mol]

    Exchange                      140.25392525 [mEh]      88.01066683 [kcal/mol]     368.23663001 [kJ/mol]
      Exch10                      129.09757370 [mEh]      81.00995054 [kcal/mol]     338.94563306 [kJ/mol]
      Exch10(S^2)                 122.69573478 [mEh]      76.99273597 [kcal/mol]     322.13760729 [kJ/mol]
      Exch11(S^2)                   0.58699587 [mEh]       0.36834547 [kcal/mol]       1.54115743 [kJ/mol]
      Exch12(S^2)                  10.56935568 [mEh]       6.63237082 [kcal/mol]      27.74983952 [kJ/mol]

    Induction                     -37.88183228 [mEh]     -23.77120864 [kcal/mol]     -99.45873694 [kJ/mol]
      Ind20,r                     -69.12402479 [mEh]     -43.37598042 [kcal/mol]    -181.48510209 [kJ/mol]
      Ind22                       -10.36717325 [mEh]      -6.50549943 [kcal/mol]     -27.21900961 [kJ/mol]
      Exch-Ind20,r                 47.12636732 [mEh]      29.57224196 [kcal/mol]     123.73026034 [kJ/mol]
      Exch-Ind22                    7.06797985 [mEh]       4.43522432 [kcal/mol]      18.55697854 [kJ/mol]
      delta HF,r (2)              -12.58498141 [mEh]      -7.89719506 [kcal/mol]     -33.04186413 [kJ/mol]

    Dispersion                    -26.25456301 [mEh]     -16.47498702 [kcal/mol]     -68.93134568 [kJ/mol]
      Disp20                      -31.52073210 [mEh]     -19.77955801 [kcal/mol]     -82.75767072 [kJ/mol]
      Disp21                        3.41892501 [mEh]       2.14540783 [kcal/mol]       8.97638637 [kJ/mol]
      Disp22 (SDQ)                 -0.53460017 [mEh]      -0.33546667 [kcal/mol]      -1.40359256 [kJ/mol]
      Disp22 (T)                   -4.42616618 [mEh]      -2.77746121 [kcal/mol]     -11.62089770 [kJ/mol]
      Est. Disp22 (T)              -4.90042314 [mEh]      -3.07506194 [kcal/mol]     -12.86605918 [kJ/mol]
      Exch-Disp20                   7.28226739 [mEh]       4.56969178 [kcal/mol]      19.11959041 [kJ/mol]

  Total HF                         30.02150550 [mEh]      18.83877912 [kcal/mol]      78.82145182 [kJ/mol]
  Total SAPT0                       5.78304079 [mEh]       3.62891289 [kcal/mol]      15.18337151 [kJ/mol]
  Total SAPT2                      10.88528001 [mEh]       6.83061633 [kcal/mol]      28.57929874 [kJ/mol]
  Total SAPT2+                      8.86918171 [mEh]       5.56549555 [kcal/mol]      23.28603337 [kJ/mol]

  Special recipe for scaled SAPT0 (see Manual):
    Electrostatics sSAPT0         -64.49342932 [mEh]     -40.47023790 [kcal/mol]    -169.32747536 [kJ/mol]
    Exchange sSAPT0               129.09757370 [mEh]      81.00995054 [kcal/mol]     338.94563306 [kJ/mol]
    Induction sSAPT0              -26.81438320 [mEh]     -16.82627949 [kcal/mol]     -70.40115340 [kJ/mol]
    Dispersion sSAPT0             -23.03806420 [mEh]     -14.45660354 [kcal/mol]     -60.48642922 [kJ/mol]
  Total sSAPT0                     14.75169698 [mEh]       9.25682961 [kcal/mol]      38.73057507 [kJ/mol]
  --------------------------------------------------------------------------------------------------------

*** tstop() called on ivy at Thu Feb 27 15:39:43 2025
Module time:
	user time   =    3737.58 seconds =      62.29 minutes
	system time =      51.80 seconds =       0.86 minutes
	total time  =       2052 seconds =      34.20 minutes
Total time:
	user time   =    3833.30 seconds =      63.89 minutes
	system time =      54.75 seconds =       0.91 minutes
	total time  =       2103 seconds =      35.05 minutes

    Psi4 stopped on: Thursday, 27 February 2025 03:39PM
    Psi4 wall time for execution: 0:35:03.90

*** Psi4 exiting successfully. Buy a developer a beer!
