
    -----------------------------------------------------------------------
          Psi4: An Open-Source Ab Initio Electronic Structure Package
                               Psi4 1.9.1 release

                         Git: Rev {} zzzzzzz 


    D. G. A. Smith, L. A. Burns, A. C. Simmonett, R. M. Parrish,
    M. C. Schieber, R. Galvelis, P. Kraus, H. Kruse, R. Di Remigio,
    A. Alenaizan, A. M. James, S. Lehtola, J. P. Misiewicz, M. Scheurer,
    R. A. Shaw, J. B. Schriber, Y. Xie, Z. L. Glick, D. A. Sirianni,
    J. S. O'Brien, J. M. Waldrop, A. Kumar, E. G. Hohenstein,
    B. P. Pritchard, B. R. Brooks, H. F. Schaefer III, A. Yu. Sokolov,
    K. Patkowski, A. E. DePrince III, U. Bozkaya, R. A. King,
    F. A. Evangelista, J. M. Turney, T. D. Crawford, C. D. Sherrill,
    J. Chem. Phys. 152(18) 184108 (2020). https://doi.org/10.1063/5.0006002

                            Additional Code Authors
    E. T. Seidl, C. L. Janssen, E. F. Valeev, M. L. Leininger,
    J. F. Gonthier, R. M. Richard, H. R. McAlexander, M. Saitow, X. Wang,
    P. Verma, M. H. Lechner, A. Jiang, S. Behnle, A. G. Heide,
    M. F. Herbst, and D. L. Poole

             Previous Authors, Complete List of Code Contributors,
                       and Citations for Specific Modules
    https://github.com/psi4/psi4/blob/master/codemeta.json
    https://github.com/psi4/psi4/graphs/contributors
    http://psicode.org/psi4manual/master/introduction.html#citing-psifour

    -----------------------------------------------------------------------


    Psi4 started on: Thursday, 27 February 2025 05:49PM

    Process ID: 7669
    Host:       ivy
    PSIDATADIR: /home/kchung25/miniconda3/envs/p4env/share/psi4
    Memory:     500.0 MiB
    Threads:    10
    
  ==> Input File <==

--------------------------------------------------------------------------
MEMORY 10 GB

molecule dimer {
0 1
C    2.303132   0.769097   0.598623
C    1.771037  -0.610986   0.306818
O    1.096965  -0.672425  -0.955992
H    1.720340  -0.407252  -1.638962
H    2.779410   0.788335   1.576531
H    1.492158   1.491832   0.589266
H    3.046547   1.060996  -0.141675
H    1.016509  -0.890517   1.035624
H    2.564219  -1.357732   0.335502
--
0 1
C   -2.277628  -0.737761   0.722993
C   -2.412772   0.514797  -0.112565
O   -1.201312   1.246748  -0.180792
H   -0.532800   0.661067  -0.564710
H   -3.227997  -1.265295   0.784406
H   -1.955960  -0.484838   1.730354
H   -1.544977  -1.410774   0.281967
H   -3.144808   1.186726   0.328225
H   -2.762635   0.258413  -1.115226

units ang
no_reorient
no_com
symmetry c1
}

set {
basis        aug-cc-pVTZ
scf_type     df
}

energy("sapt2+")
--------------------------------------------------------------------------

  Memory set to   9.313 GiB by Python driver.

Scratch directory: /tmp/
   => Loading Basis Set <=

    Name: AUG-CC-PVTZ
    Role: ORBITAL
    Keyword: BASIS
    atoms 1-2, 10-11 entry C          line   239 file /home/kchung25/miniconda3/envs/p4env/share/psi4/basis/aug-cc-pvtz.gbs 
    atoms 3, 12      entry O          line   331 file /home/kchung25/miniconda3/envs/p4env/share/psi4/basis/aug-cc-pvtz.gbs 
    atoms 4-9, 13-18 entry H          line    40 file /home/kchung25/miniconda3/envs/p4env/share/psi4/basis/aug-cc-pvtz.gbs 

   => Loading Basis Set <=

    Name: AUG-CC-PVTZ
    Role: ORBITAL
    Keyword: BASIS
    atoms 1-2, 10-11 entry C          line   239 file /home/kchung25/miniconda3/envs/p4env/share/psi4/basis/aug-cc-pvtz.gbs 
    atoms 3, 12      entry O          line   331 file /home/kchung25/miniconda3/envs/p4env/share/psi4/basis/aug-cc-pvtz.gbs 
    atoms 4-9, 13-18 entry H          line    40 file /home/kchung25/miniconda3/envs/p4env/share/psi4/basis/aug-cc-pvtz.gbs 


  //>>>>>>>>>>>>>>>>>>>>>>>>>>>>>>>>>>>//
  //              Dimer HF             //
  //<<<<<<<<<<<<<<<<<<<<<<<<<<<<<<<<<<<//

   => Libint2 <=

    Primary   basis highest AM E, G, H:  6, 6, 3
    Auxiliary basis highest AM E, G, H:  7, 7, 4
    Onebody   basis highest AM E, G, H:  -, -, -
    Solid Harmonics ordering:            Gaussian

*** tstart() called on ivy
*** at Thu Feb 27 17:49:26 2025

   => Loading Basis Set <=

    Name: AUG-CC-PVTZ
    Role: ORBITAL
    Keyword: BASIS
    atoms 1-2, 10-11 entry C          line   239 file /home/kchung25/miniconda3/envs/p4env/share/psi4/basis/aug-cc-pvtz.gbs 
    atoms 3, 12      entry O          line   331 file /home/kchung25/miniconda3/envs/p4env/share/psi4/basis/aug-cc-pvtz.gbs 
    atoms 4-9, 13-18 entry H          line    40 file /home/kchung25/miniconda3/envs/p4env/share/psi4/basis/aug-cc-pvtz.gbs 


         ---------------------------------------------------------
                                   SCF
               by Justin Turney, Rob Parrish, Andy Simmonett
                          and Daniel G. A. Smith
                              RHF Reference
                       10 Threads,   9536 MiB Core
         ---------------------------------------------------------

  ==> Geometry <==

    Molecular point group: c1
    Full point group: C1

    Geometry (in Angstrom), charge = 0, multiplicity = 1:

       Center              X                  Y                   Z               Mass       
    ------------   -----------------  -----------------  -----------------  -----------------
         C            2.303132000000     0.769097000000     0.598623000000    12.000000000000
         C            1.771037000000    -0.610986000000     0.306818000000    12.000000000000
         O            1.096965000000    -0.672425000000    -0.955992000000    15.994914619570
         H            1.720340000000    -0.407252000000    -1.638962000000     1.007825032230
         H            2.779410000000     0.788335000000     1.576531000000     1.007825032230
         H            1.492158000000     1.491832000000     0.589266000000     1.007825032230
         H            3.046547000000     1.060996000000    -0.141675000000     1.007825032230
         H            1.016509000000    -0.890517000000     1.035624000000     1.007825032230
         H            2.564219000000    -1.357732000000     0.335502000000     1.007825032230
         C           -2.277628000000    -0.737761000000     0.722993000000    12.000000000000
         C           -2.412772000000     0.514797000000    -0.112565000000    12.000000000000
         O           -1.201312000000     1.246748000000    -0.180792000000    15.994914619570
         H           -0.532800000000     0.661067000000    -0.564710000000     1.007825032230
         H           -3.227997000000    -1.265295000000     0.784406000000     1.007825032230
         H           -1.955960000000    -0.484838000000     1.730354000000     1.007825032230
         H           -1.544977000000    -1.410774000000     0.281967000000     1.007825032230
         H           -3.144808000000     1.186726000000     0.328225000000     1.007825032230
         H           -2.762635000000     0.258413000000    -1.115226000000     1.007825032230

  Running in c1 symmetry.

  Rotational constants: A =      0.16219  B =      0.04428  C =      0.04145 [cm^-1]
  Rotational constants: A =   4862.39462  B =   1327.61166  C =   1242.69623 [MHz]
  Nuclear repulsion =  255.054369217249871

  Charge       = 0
  Multiplicity = 1
  Electrons    = 52
  Nalpha       = 26
  Nbeta        = 26

  ==> Algorithm <==

  SCF Algorithm Type is DF.
  DIIS enabled.
  MOM disabled.
  Fractional occupation disabled.
  Guess Type is SAD.
  Energy threshold   = 1.00e-08
  Density threshold  = 1.00e-08
  Integral threshold = 1.00e-12

  ==> Primary Basis <==

  Basis Set: AUG-CC-PVTZ
    Blend: AUG-CC-PVTZ
    Number of shells: 192
    Number of basis functions: 552
    Number of Cartesian functions: 630
    Spherical Harmonics?: true
    Max angular momentum: 3

   => Loading Basis Set <=

    Name: (AUG-CC-PVTZ AUX)
    Role: JKFIT
    Keyword: DF_BASIS_SCF
    atoms 1-2, 10-11 entry C          line   162 file /home/kchung25/miniconda3/envs/p4env/share/psi4/basis/aug-cc-pvtz-jkfit.gbs 
    atoms 3, 12      entry O          line   286 file /home/kchung25/miniconda3/envs/p4env/share/psi4/basis/aug-cc-pvtz-jkfit.gbs 
    atoms 4-9, 13-18 entry H          line    70 file /home/kchung25/miniconda3/envs/p4env/share/psi4/basis/aug-cc-pvtz-jkfit.gbs 

  ==> Integral Setup <==

  ==> DiskDFJK: Density-Fitted J/K Matrices <==

    J tasked:                  Yes
    K tasked:                  Yes
    wK tasked:                  No
    OpenMP threads:             10
    Integrals threads:          10
    Memory [MiB]:             7152
    Algorithm:                Core
    Integral Cache:           SAVE
    Schwarz Cutoff:          1E-12
    Fitting Condition:       1E-10

   => Auxiliary Basis Set <=

  Basis Set: (AUG-CC-PVTZ AUX)
    Blend: AUG-CC-PVTZ-JKFIT
    Number of shells: 348
    Number of basis functions: 1176
    Number of Cartesian functions: 1446
    Spherical Harmonics?: true
    Max angular momentum: 4

  Minimum eigenvalue in the overlap matrix is 9.4339297613E-06.
  Reciprocal condition number of the overlap matrix is 5.1386523235E-07.
    Using symmetric orthogonalization.

  ==> Pre-Iterations <==

  SCF Guess: Superposition of Atomic Densities via on-the-fly atomic UHF (no occupation information).

   -------------------------
    Irrep   Nso     Nmo    
   -------------------------
     A        552     552 
   -------------------------
    Total     552     552
   -------------------------

  ==> Iterations <==

                           Total Energy        Delta E     RMS |[F,P]|

   @DF-RHF iter SAD:  -307.02384776768861   -3.07024e+02   0.00000e+00 
   @DF-RHF iter   1:  -308.02335705482892   -9.99509e-01   1.29351e-03 ADIIS/DIIS
   @DF-RHF iter   2:  -308.24149132055516   -2.18134e-01   6.57148e-04 ADIIS/DIIS
   @DF-RHF iter   3:  -308.29151866482391   -5.00273e-02   1.17588e-04 ADIIS/DIIS
   @DF-RHF iter   4:  -308.29460375896804   -3.08509e-03   4.33784e-05 DIIS
   @DF-RHF iter   5:  -308.29493917844172   -3.35419e-04   8.82059e-06 DIIS
   @DF-RHF iter   6:  -308.29495975609893   -2.05777e-05   2.03099e-06 DIIS
   @DF-RHF iter   7:  -308.29496124776387   -1.49166e-06   5.67029e-07 DIIS
   @DF-RHF iter   8:  -308.29496135307193   -1.05308e-07   1.86359e-07 DIIS
   @DF-RHF iter   9:  -308.29496136492838   -1.18565e-08   5.20925e-08 DIIS
   @DF-RHF iter  10:  -308.29496136581406   -8.85677e-10   1.90297e-08 DIIS
   @DF-RHF iter  11:  -308.29496136588227   -6.82121e-11   4.99599e-09 DIIS
  Energy and wave function converged.


  ==> Post-Iterations <==

    Orbital Energies [Eh]
    ---------------------

    Doubly Occupied:                                                      

       1A    -20.571007     2A    -20.535025     3A    -11.281095  
       4A    -11.259277     5A    -11.218970     6A    -11.204965  
       7A     -1.371230     8A     -1.339953     9A     -1.022700  
      10A     -1.002266    11A     -0.856648    12A     -0.835403  
      13A     -0.701505    14A     -0.670406    15A     -0.632699  
      16A     -0.621101    17A     -0.610165    18A     -0.594920  
      19A     -0.554756    20A     -0.532955    21A     -0.531392  
      22A     -0.513049    23A     -0.493522    24A     -0.469828  
      25A     -0.456492    26A     -0.427255  

    Virtual:                                                              

      27A      0.026974    28A      0.036037    29A      0.037390  
      30A      0.039894    31A      0.051356    32A      0.053115  
      33A      0.053501    34A      0.066280    35A      0.069175  
      36A      0.078484    37A      0.081032    38A      0.087864  
      39A      0.112227    40A      0.114235    41A      0.120915  
      42A      0.124685    43A      0.127230    44A      0.133060  
      45A      0.138063    46A      0.140106    47A      0.150361  
      48A      0.153091    49A      0.158461    50A      0.161574  
      51A      0.165768    52A      0.174093    53A      0.184754  
      54A      0.188216    55A      0.196039    56A      0.214802  
      57A      0.218193    58A      0.221643    59A      0.232149  
      60A      0.236799    61A      0.246873    62A      0.259669  
      63A      0.269270    64A      0.274170    65A      0.278756  
      66A      0.293770    67A      0.296361    68A      0.299494  
      69A      0.307832    70A      0.309177    71A      0.311079  
      72A      0.324547    73A      0.330603    74A      0.334616  
      75A      0.341876    76A      0.343713    77A      0.346751  
      78A      0.353223    79A      0.361330    80A      0.365407  
      81A      0.370051    82A      0.373405    83A      0.381318  
      84A      0.389713    85A      0.394687    86A      0.398314  
      87A      0.400004    88A      0.403221    89A      0.412964  
      90A      0.419255    91A      0.422301    92A      0.425088  
      93A      0.428603    94A      0.434997    95A      0.439648  
      96A      0.449824    97A      0.452025    98A      0.458564  
      99A      0.460947   100A      0.469663   101A      0.471010  
     102A      0.474379   103A      0.479200   104A      0.483530  
     105A      0.491046   106A      0.499585   107A      0.500310  
     108A      0.505167   109A      0.517016   110A      0.519364  
     111A      0.529027   112A      0.536533   113A      0.539693  
     114A      0.543731   115A      0.551010   116A      0.558376  
     117A      0.561063   118A      0.568430   119A      0.571367  
     120A      0.578902   121A      0.582738   122A      0.598531  
     123A      0.600167   124A      0.614782   125A      0.619728  
     126A      0.623463   127A      0.633602   128A      0.640308  
     129A      0.647003   130A      0.656714   131A      0.666873  
     132A      0.683108   133A      0.704718   134A      0.707443  
     135A      0.726814   136A      0.738002   137A      0.755910  
     138A      0.768099   139A      0.775273   140A      0.788566  
     141A      0.797665   142A      0.805637   143A      0.812090  
     144A      0.823548   145A      0.830301   146A      0.831272  
     147A      0.838098   148A      0.847941   149A      0.852902  
     150A      0.861283   151A      0.873298   152A      0.881797  
     153A      0.884454   154A      0.892124   155A      0.895769  
     156A      0.903562   157A      0.907911   158A      0.911285  
     159A      0.924986   160A      0.929427   161A      0.936186  
     162A      0.946211   163A      0.947694   164A      0.956942  
     165A      0.958779   166A      0.970606   167A      0.972923  
     168A      0.977771   169A      0.989226   170A      0.995678  
     171A      0.997575   172A      1.008051   173A      1.011609  
     174A      1.018724   175A      1.030664   176A      1.040124  
     177A      1.045106   178A      1.059116   179A      1.062450  
     180A      1.067568   181A      1.084460   182A      1.091379  
     183A      1.098856   184A      1.105143   185A      1.110076  
     186A      1.117218   187A      1.122310   188A      1.130840  
     189A      1.133834   190A      1.142761   191A      1.149742  
     192A      1.152430   193A      1.157288   194A      1.161788  
     195A      1.165887   196A      1.183052   197A      1.187579  
     198A      1.196681   199A      1.200694   200A      1.203429  
     201A      1.216227   202A      1.224383   203A      1.237956  
     204A      1.239467   205A      1.255277   206A      1.259482  
     207A      1.266514   208A      1.281558   209A      1.284999  
     210A      1.293199   211A      1.299936   212A      1.304188  
     213A      1.321368   214A      1.326514   215A      1.336617  
     216A      1.349473   217A      1.356214   218A      1.369040  
     219A      1.378597   220A      1.388110   221A      1.399004  
     222A      1.407281   223A      1.411327   224A      1.420614  
     225A      1.427684   226A      1.443926   227A      1.451044  
     228A      1.456496   229A      1.467348   230A      1.472537  
     231A      1.486748   232A      1.496354   233A      1.511025  
     234A      1.522455   235A      1.533871   236A      1.540667  
     237A      1.560116   238A      1.569478   239A      1.576071  
     240A      1.592121   241A      1.598931   242A      1.620941  
     243A      1.626247   244A      1.633851   245A      1.643816  
     246A      1.652866   247A      1.663234   248A      1.676219  
     249A      1.681437   250A      1.687712   251A      1.693021  
     252A      1.698823   253A      1.712053   254A      1.715352  
     255A      1.716347   256A      1.730832   257A      1.746511  
     258A      1.757940   259A      1.760945   260A      1.771265  
     261A      1.775238   262A      1.789006   263A      1.795233  
     264A      1.803236   265A      1.809202   266A      1.826156  
     267A      1.834770   268A      1.846418   269A      1.865052  
     270A      1.871189   271A      1.881159   272A      1.885820  
     273A      1.887656   274A      1.912751   275A      1.920353  
     276A      1.933857   277A      1.941565   278A      1.952746  
     279A      1.972761   280A      1.975001   281A      1.991373  
     282A      1.993182   283A      2.010151   284A      2.024568  
     285A      2.027647   286A      2.045514   287A      2.046648  
     288A      2.063884   289A      2.072898   290A      2.097396  
     291A      2.105047   292A      2.121654   293A      2.137633  
     294A      2.160750   295A      2.169780   296A      2.175572  
     297A      2.183194   298A      2.207322   299A      2.219211  
     300A      2.246048   301A      2.261802   302A      2.268126  
     303A      2.274034   304A      2.291988   305A      2.302649  
     306A      2.319544   307A      2.321956   308A      2.336906  
     309A      2.341840   310A      2.365123   311A      2.374676  
     312A      2.388854   313A      2.408572   314A      2.434654  
     315A      2.456267   316A      2.470114   317A      2.477786  
     318A      2.501727   319A      2.543451   320A      2.609897  
     321A      2.626745   322A      2.643211   323A      2.682395  
     324A      2.717538   325A      2.730050   326A      2.749115  
     327A      2.776798   328A      2.783352   329A      2.812147  
     330A      2.835185   331A      2.866774   332A      2.871807  
     333A      2.914566   334A      2.937268   335A      2.953595  
     336A      2.969964   337A      2.985231   338A      3.023573  
     339A      3.047433   340A      3.055390   341A      3.060461  
     342A      3.104102   343A      3.131270   344A      3.137389  
     345A      3.195637   346A      3.215910   347A      3.232040  
     348A      3.256578   349A      3.293993   350A      3.336044  
     351A      3.389908   352A      3.417832   353A      3.429193  
     354A      3.437572   355A      3.463096   356A      3.485404  
     357A      3.498482   358A      3.503883   359A      3.526388  
     360A      3.554410   361A      3.602074   362A      3.624332  
     363A      3.635943   364A      3.660367   365A      3.670403  
     366A      3.677826   367A      3.684752   368A      3.694837  
     369A      3.698624   370A      3.714014   371A      3.723997  
     372A      3.738484   373A      3.759627   374A      3.770485  
     375A      3.776305   376A      3.789983   377A      3.798343  
     378A      3.811173   379A      3.817306   380A      3.853530  
     381A      3.860377   382A      3.883604   383A      3.908210  
     384A      3.918087   385A      3.955566   386A      3.960335  
     387A      3.970979   388A      3.977421   389A      3.979468  
     390A      4.003236   391A      4.014821   392A      4.021881  
     393A      4.032511   394A      4.037739   395A      4.071024  
     396A      4.079565   397A      4.082266   398A      4.105865  
     399A      4.107303   400A      4.122138   401A      4.150774  
     402A      4.157807   403A      4.173878   404A      4.199331  
     405A      4.206328   406A      4.207230   407A      4.225541  
     408A      4.229335   409A      4.235829   410A      4.257922  
     411A      4.275299   412A      4.289831   413A      4.299199  
     414A      4.315058   415A      4.356402   416A      4.370404  
     417A      4.390485   418A      4.408674   419A      4.435081  
     420A      4.445470   421A      4.485965   422A      4.501669  
     423A      4.523497   424A      4.538757   425A      4.562456  
     426A      4.576639   427A      4.584309   428A      4.598599  
     429A      4.616056   430A      4.630165   431A      4.651938  
     432A      4.657914   433A      4.669424   434A      4.700069  
     435A      4.716208   436A      4.742357   437A      4.767043  
     438A      4.774149   439A      4.794684   440A      4.798904  
     441A      4.829226   442A      4.847345   443A      4.853990  
     444A      4.864681   445A      4.892193   446A      4.898867  
     447A      4.905581   448A      4.924657   449A      4.929258  
     450A      4.951079   451A      4.970439   452A      4.983947  
     453A      4.996802   454A      5.022531   455A      5.027801  
     456A      5.049729   457A      5.052355   458A      5.080352  
     459A      5.090423   460A      5.093252   461A      5.115139  
     462A      5.142162   463A      5.179107   464A      5.189407  
     465A      5.201470   466A      5.214967   467A      5.230418  
     468A      5.239045   469A      5.258427   470A      5.280661  
     471A      5.312680   472A      5.333015   473A      5.375676  
     474A      5.388037   475A      5.406799   476A      5.409239  
     477A      5.443271   478A      5.455078   479A      5.487700  
     480A      5.505705   481A      5.518537   482A      5.564236  
     483A      5.567866   484A      5.583163   485A      5.596312  
     486A      5.602129   487A      5.639984   488A      5.652603  
     489A      5.666223   490A      5.686586   491A      5.699450  
     492A      5.719889   493A      5.753749   494A      5.775653  
     495A      5.804522   496A      5.809315   497A      5.878276  
     498A      5.885257   499A      6.032699   500A      6.040065  
     501A      6.089340   502A      6.106143   503A      6.128480  
     504A      6.162435   505A      6.197680   506A      6.208478  
     507A      6.252034   508A      6.273463   509A      6.282324  
     510A      6.286339   511A      6.325668   512A      6.340968  
     513A      6.418527   514A      6.435730   515A      6.700803  
     516A      6.710376   517A      6.753840   518A      6.766292  
     519A      6.789273   520A      6.855849   521A      6.867652  
     522A      6.886738   523A      6.991368   524A      7.012395  
     525A      7.041609   526A      7.065478   527A      7.187008  
     528A      7.201336   529A      7.336501   530A      7.355769  
     531A      7.423930   532A      7.453008   533A      7.504102  
     534A      7.512189   535A      7.558143   536A      7.598615  
     537A      7.695794   538A      7.702310   539A      7.854384  
     540A      7.901650   541A      7.955735   542A      8.033931  
     543A      8.254481   544A      8.302559   545A      8.608346  
     546A      8.659718   547A     16.293388   548A     16.772141  
     549A     17.843101   550A     17.916633   551A     18.597592  
     552A     18.676760  

    Final Occupation by Irrep:
              A 
    DOCC [    26 ]
    NA   [    26 ]
    NB   [    26 ]

  @DF-RHF Final Energy:  -308.29496136588227

   => Energetics <=

    Nuclear Repulsion Energy =            255.0543692172498709
    One-Electron Energy =                -926.0814878811269182
    Two-Electron Energy =                 362.7321572979947177
    Total Energy =                       -308.2949613658822727

Computation Completed


Properties will be evaluated at   0.000000,   0.000000,   0.000000 [a0]

Properties computed using the SCF density matrix


 Multipole Moments:

 ------------------------------------------------------------------------------------
     Multipole            Electronic (a.u.)      Nuclear  (a.u.)        Total (a.u.)
 ------------------------------------------------------------------------------------

 L = 1.  Multiply by 2.5417464519 to convert [e a0] to [Debye]
 Dipole X            :         10.3346550           -9.6038830            0.7307721
 Dipole Y            :         -7.7500705            7.2497963           -0.5002742
 Dipole Z            :         -6.0719751            6.0513641           -0.0206109
 Magnitude           :                                                    0.8858481

 ------------------------------------------------------------------------------------

*** tstop() called on ivy at Thu Feb 27 17:49:33 2025
Module time:
	user time   =      48.54 seconds =       0.81 minutes
	system time =       3.22 seconds =       0.05 minutes
	total time  =          7 seconds =       0.12 minutes
Total time:
	user time   =      48.54 seconds =       0.81 minutes
	system time =       3.22 seconds =       0.05 minutes
	total time  =          7 seconds =       0.12 minutes

  //>>>>>>>>>>>>>>>>>>>>>>>>>>>>>>>>>>>//
  //            Monomer A HF           //
  //<<<<<<<<<<<<<<<<<<<<<<<<<<<<<<<<<<<//

   => Libint2 <=

    Primary   basis highest AM E, G, H:  6, 6, 3
    Auxiliary basis highest AM E, G, H:  7, 7, 4
    Onebody   basis highest AM E, G, H:  -, -, -
    Solid Harmonics ordering:            Gaussian

*** tstart() called on ivy
*** at Thu Feb 27 17:49:33 2025

   => Loading Basis Set <=

    Name: AUG-CC-PVTZ
    Role: ORBITAL
    Keyword: BASIS
    atoms 1-2, 10-11 entry C          line   239 file /home/kchung25/miniconda3/envs/p4env/share/psi4/basis/aug-cc-pvtz.gbs 
    atoms 3, 12      entry O          line   331 file /home/kchung25/miniconda3/envs/p4env/share/psi4/basis/aug-cc-pvtz.gbs 
    atoms 4-9, 13-18 entry H          line    40 file /home/kchung25/miniconda3/envs/p4env/share/psi4/basis/aug-cc-pvtz.gbs 


         ---------------------------------------------------------
                                   SCF
               by Justin Turney, Rob Parrish, Andy Simmonett
                          and Daniel G. A. Smith
                              RHF Reference
                       10 Threads,   9536 MiB Core
         ---------------------------------------------------------

  ==> Geometry <==

    Molecular point group: c1
    Full point group: C1

    Geometry (in Angstrom), charge = 0, multiplicity = 1:

       Center              X                  Y                   Z               Mass       
    ------------   -----------------  -----------------  -----------------  -----------------
         C            2.303132000000     0.769097000000     0.598623000000    12.000000000000
         C            1.771037000000    -0.610986000000     0.306818000000    12.000000000000
         O            1.096965000000    -0.672425000000    -0.955992000000    15.994914619570
         H            1.720340000000    -0.407252000000    -1.638962000000     1.007825032230
         H            2.779410000000     0.788335000000     1.576531000000     1.007825032230
         H            1.492158000000     1.491832000000     0.589266000000     1.007825032230
         H            3.046547000000     1.060996000000    -0.141675000000     1.007825032230
         H            1.016509000000    -0.890517000000     1.035624000000     1.007825032230
         H            2.564219000000    -1.357732000000     0.335502000000     1.007825032230
      Gh(C)          -2.277628000000    -0.737761000000     0.722993000000    12.000000000000
      Gh(C)          -2.412772000000     0.514797000000    -0.112565000000    12.000000000000
      Gh(O)          -1.201312000000     1.246748000000    -0.180792000000    15.994914619570
      Gh(H)          -0.532800000000     0.661067000000    -0.564710000000     1.007825032230
      Gh(H)          -3.227997000000    -1.265295000000     0.784406000000     1.007825032230
      Gh(H)          -1.955960000000    -0.484838000000     1.730354000000     1.007825032230
      Gh(H)          -1.544977000000    -1.410774000000     0.281967000000     1.007825032230
      Gh(H)          -3.144808000000     1.186726000000     0.328225000000     1.007825032230
      Gh(H)          -2.762635000000     0.258413000000    -1.115226000000     1.007825032230

  Running in c1 symmetry.

  Rotational constants: A =      0.16219  B =      0.04428  C =      0.04145 [cm^-1]
  Rotational constants: A =   4862.39462  B =   1327.61166  C =   1242.69623 [MHz]
  Nuclear repulsion =   81.897605397406679

  Charge       = 0
  Multiplicity = 1
  Electrons    = 26
  Nalpha       = 13
  Nbeta        = 13

  ==> Algorithm <==

  SCF Algorithm Type is DF.
  DIIS enabled.
  MOM disabled.
  Fractional occupation disabled.
  Guess Type is SAD.
  Energy threshold   = 1.00e-08
  Density threshold  = 1.00e-08
  Integral threshold = 1.00e-12

  ==> Primary Basis <==

  Basis Set: AUG-CC-PVTZ
    Blend: AUG-CC-PVTZ
    Number of shells: 192
    Number of basis functions: 552
    Number of Cartesian functions: 630
    Spherical Harmonics?: true
    Max angular momentum: 3

   => Loading Basis Set <=

    Name: (AUG-CC-PVTZ AUX)
    Role: JKFIT
    Keyword: DF_BASIS_SCF
    atoms 1-2, 10-11 entry C          line   162 file /home/kchung25/miniconda3/envs/p4env/share/psi4/basis/aug-cc-pvtz-jkfit.gbs 
    atoms 3, 12      entry O          line   286 file /home/kchung25/miniconda3/envs/p4env/share/psi4/basis/aug-cc-pvtz-jkfit.gbs 
    atoms 4-9, 13-18 entry H          line    70 file /home/kchung25/miniconda3/envs/p4env/share/psi4/basis/aug-cc-pvtz-jkfit.gbs 

  ==> Integral Setup <==

  ==> DiskDFJK: Density-Fitted J/K Matrices <==

    J tasked:                  Yes
    K tasked:                  Yes
    wK tasked:                  No
    OpenMP threads:             10
    Integrals threads:          10
    Memory [MiB]:             7152
    Algorithm:                Core
    Integral Cache:           LOAD
    Schwarz Cutoff:          1E-12
    Fitting Condition:       1E-10

   => Auxiliary Basis Set <=

  Basis Set: (AUG-CC-PVTZ AUX)
    Blend: AUG-CC-PVTZ-JKFIT
    Number of shells: 348
    Number of basis functions: 1176
    Number of Cartesian functions: 1446
    Spherical Harmonics?: true
    Max angular momentum: 4

  Minimum eigenvalue in the overlap matrix is 9.4339297613E-06.
  Reciprocal condition number of the overlap matrix is 5.1386523235E-07.
    Using symmetric orthogonalization.

  ==> Pre-Iterations <==

  SCF Guess: Superposition of Atomic Densities via on-the-fly atomic UHF (no occupation information).

   -------------------------
    Irrep   Nso     Nmo    
   -------------------------
     A        552     552 
   -------------------------
    Total     552     552
   -------------------------

  ==> Iterations <==

                           Total Energy        Delta E     RMS |[F,P]|

   @DF-RHF iter SAD:  -153.43065364956087   -1.53431e+02   0.00000e+00 
   @DF-RHF iter   1:  -154.00380125259574   -5.73148e-01   9.36985e-04 ADIIS/DIIS
   @DF-RHF iter   2:  -154.11525523415835   -1.11454e-01   4.95848e-04 ADIIS/DIIS
   @DF-RHF iter   3:  -154.14307841914984   -2.78232e-02   8.51945e-05 DIIS
   @DF-RHF iter   4:  -154.14466300079292   -1.58458e-03   3.29324e-05 DIIS
   @DF-RHF iter   5:  -154.14485883025156   -1.95829e-04   6.18674e-06 DIIS
   @DF-RHF iter   6:  -154.14486913951464   -1.03093e-05   1.41857e-06 DIIS
   @DF-RHF iter   7:  -154.14486986920900   -7.29694e-07   4.01716e-07 DIIS
   @DF-RHF iter   8:  -154.14486992372150   -5.45125e-08   1.28252e-07 DIIS
   @DF-RHF iter   9:  -154.14486992987716   -6.15566e-09   3.30666e-08 DIIS
   @DF-RHF iter  10:  -154.14486993031539   -4.38234e-10   6.36495e-09 DIIS
  Energy and wave function converged.


  ==> Post-Iterations <==

    Orbital Energies [Eh]
    ---------------------

    Doubly Occupied:                                                      

       1A    -20.553386     2A    -11.272937     3A    -11.217541  
       4A     -1.352679     5A     -1.016940     6A     -0.848665  
       7A     -0.684510     8A     -0.622415     9A     -0.609822  
      10A     -0.545553    11A     -0.525192    12A     -0.484038  
      13A     -0.444944  

    Virtual:                                                              

      14A      0.025170    15A      0.032295    16A      0.036399  
      17A      0.038256    18A      0.049498    19A      0.052231  
      20A      0.053455    21A      0.063223    22A      0.068032  
      23A      0.077907    24A      0.079820    25A      0.085035  
      26A      0.097963    27A      0.110787    28A      0.113455  
      29A      0.118747    30A      0.123634    31A      0.127595  
      32A      0.128597    33A      0.137758    34A      0.142298  
      35A      0.143087    36A      0.149621    37A      0.160088  
      38A      0.161687    39A      0.169875    40A      0.174802  
      41A      0.185010    42A      0.192873    43A      0.204823  
      44A      0.212791    45A      0.217471    46A      0.223947  
      47A      0.235561    48A      0.243209    49A      0.252361  
      50A      0.259877    51A      0.272040    52A      0.281090  
      53A      0.286738    54A      0.288158    55A      0.295312  
      56A      0.304174    57A      0.306518    58A      0.312108  
      59A      0.318593    60A      0.323804    61A      0.325533  
      62A      0.338331    63A      0.339741    64A      0.342657  
      65A      0.343530    66A      0.349473    67A      0.356258  
      68A      0.361453    69A      0.370691    70A      0.379634  
      71A      0.383204    72A      0.390983    73A      0.398731  
      74A      0.402218    75A      0.406628    76A      0.410458  
      77A      0.416598    78A      0.420617    79A      0.423650  
      80A      0.430741    81A      0.432890    82A      0.444506  
      83A      0.444986    84A      0.457448    85A      0.461432  
      86A      0.464282    87A      0.468828    88A      0.473540  
      89A      0.483116    90A      0.488814    91A      0.490503  
      92A      0.497849    93A      0.502913    94A      0.510219  
      95A      0.516709    96A      0.519062    97A      0.530776  
      98A      0.534835    99A      0.544598   100A      0.549135  
     101A      0.553590   102A      0.561881   103A      0.566683  
     104A      0.573417   105A      0.579405   106A      0.585637  
     107A      0.597923   108A      0.602049   109A      0.606450  
     110A      0.614984   111A      0.629632   112A      0.632246  
     113A      0.638074   114A      0.649430   115A      0.653455  
     116A      0.661134   117A      0.671431   118A      0.676404  
     119A      0.683584   120A      0.685394   121A      0.696522  
     122A      0.709679   123A      0.727083   124A      0.737974  
     125A      0.753347   126A      0.759714   127A      0.774943  
     128A      0.777564   129A      0.804264   130A      0.810413  
     131A      0.820427   132A      0.825309   133A      0.831551  
     134A      0.841336   135A      0.853050   136A      0.862921  
     137A      0.872212   138A      0.878127   139A      0.887980  
     140A      0.901666   141A      0.908893   142A      0.911158  
     143A      0.930309   144A      0.940593   145A      0.946829  
     146A      0.956823   147A      0.960876   148A      0.965516  
     149A      0.968657   150A      0.983015   151A      0.987302  
     152A      0.996119   153A      0.997957   154A      1.006393  
     155A      1.013699   156A      1.018420   157A      1.032009  
     158A      1.038394   159A      1.049063   160A      1.055162  
     161A      1.062339   162A      1.069641   163A      1.073120  
     164A      1.080356   165A      1.084275   166A      1.094381  
     167A      1.098953   168A      1.113330   169A      1.118346  
     170A      1.122931   171A      1.125525   172A      1.129713  
     173A      1.139434   174A      1.142128   175A      1.150757  
     176A      1.154434   177A      1.164366   178A      1.169044  
     179A      1.173139   180A      1.180556   181A      1.186159  
     182A      1.195360   183A      1.207628   184A      1.220872  
     185A      1.230500   186A      1.232811   187A      1.239077  
     188A      1.243808   189A      1.247558   190A      1.253897  
     191A      1.263153   192A      1.272997   193A      1.278677  
     194A      1.295861   195A      1.307673   196A      1.309579  
     197A      1.314904   198A      1.317429   199A      1.332168  
     200A      1.337253   201A      1.347254   202A      1.363607  
     203A      1.365007   204A      1.380852   205A      1.393404  
     206A      1.400071   207A      1.405707   208A      1.417852  
     209A      1.420559   210A      1.422660   211A      1.429327  
     212A      1.438113   213A      1.445630   214A      1.458130  
     215A      1.472464   216A      1.484321   217A      1.492091  
     218A      1.497513   219A      1.509211   220A      1.519154  
     221A      1.524410   222A      1.542728   223A      1.543918  
     224A      1.561122   225A      1.572895   226A      1.580325  
     227A      1.582922   228A      1.599596   229A      1.616668  
     230A      1.629204   231A      1.636120   232A      1.653545  
     233A      1.664583   234A      1.668978   235A      1.685597  
     236A      1.693450   237A      1.700448   238A      1.713078  
     239A      1.716587   240A      1.721109   241A      1.730446  
     242A      1.743409   243A      1.759398   244A      1.778929  
     245A      1.787124   246A      1.804156   247A      1.809680  
     248A      1.816692   249A      1.835261   250A      1.840646  
     251A      1.849388   252A      1.876595   253A      1.877727  
     254A      1.887092   255A      1.895837   256A      1.906054  
     257A      1.912436   258A      1.924543   259A      1.943949  
     260A      1.953699   261A      1.963599   262A      1.977415  
     263A      1.998116   264A      2.005476   265A      2.011316  
     266A      2.028283   267A      2.033063   268A      2.044768  
     269A      2.051217   270A      2.056859   271A      2.073951  
     272A      2.091846   273A      2.104279   274A      2.105582  
     275A      2.128102   276A      2.147190   277A      2.154710  
     278A      2.170484   279A      2.178023   280A      2.189213  
     281A      2.200956   282A      2.208425   283A      2.227027  
     284A      2.231770   285A      2.239363   286A      2.249261  
     287A      2.263354   288A      2.277018   289A      2.303168  
     290A      2.308059   291A      2.315349   292A      2.334675  
     293A      2.346163   294A      2.364312   295A      2.392844  
     296A      2.412089   297A      2.449543   298A      2.458478  
     299A      2.464353   300A      2.481480   301A      2.504000  
     302A      2.532320   303A      2.543443   304A      2.567881  
     305A      2.575274   306A      2.611834   307A      2.621546  
     308A      2.650045   309A      2.670445   310A      2.693698  
     311A      2.716354   312A      2.722353   313A      2.742094  
     314A      2.765476   315A      2.784118   316A      2.805625  
     317A      2.825512   318A      2.841855   319A      2.860732  
     320A      2.881421   321A      2.897715   322A      2.908940  
     323A      2.942824   324A      2.965563   325A      2.979636  
     326A      3.000356   327A      3.043414   328A      3.050584  
     329A      3.057912   330A      3.088272   331A      3.115514  
     332A      3.142715   333A      3.154694   334A      3.205788  
     335A      3.220871   336A      3.257923   337A      3.290577  
     338A      3.373342   339A      3.415487   340A      3.448251  
     341A      3.464413   342A      3.489150   343A      3.510406  
     344A      3.525646   345A      3.549673   346A      3.568212  
     347A      3.581469   348A      3.616904   349A      3.651480  
     350A      3.660355   351A      3.684601   352A      3.693690  
     353A      3.715308   354A      3.732564   355A      3.753172  
     356A      3.777038   357A      3.793707   358A      3.805692  
     359A      3.834340   360A      3.854356   361A      3.893829  
     362A      3.923790   363A      3.941673   364A      3.961435  
     365A      3.968991   366A      3.981289   367A      4.002377  
     368A      4.016068   369A      4.047598   370A      4.074262  
     371A      4.097020   372A      4.114977   373A      4.120093  
     374A      4.140095   375A      4.159244   376A      4.166083  
     377A      4.169178   378A      4.183099   379A      4.200163  
     380A      4.209211   381A      4.228516   382A      4.246169  
     383A      4.253353   384A      4.262287   385A      4.275071  
     386A      4.298523   387A      4.308208   388A      4.333724  
     389A      4.363716   390A      4.376965   391A      4.410394  
     392A      4.421858   393A      4.441305   394A      4.473679  
     395A      4.478445   396A      4.493915   397A      4.508771  
     398A      4.519210   399A      4.542759   400A      4.567466  
     401A      4.588423   402A      4.608440   403A      4.622270  
     404A      4.633223   405A      4.647812   406A      4.659371  
     407A      4.669883   408A      4.692950   409A      4.698846  
     410A      4.723253   411A      4.748722   412A      4.766331  
     413A      4.767707   414A      4.783635   415A      4.798717  
     416A      4.823166   417A      4.833248   418A      4.854755  
     419A      4.860698   420A      4.873111   421A      4.898204  
     422A      4.922837   423A      4.930805   424A      4.942680  
     425A      4.958219   426A      4.973173   427A      4.986342  
     428A      5.002855   429A      5.005742   430A      5.037919  
     431A      5.053390   432A      5.068395   433A      5.078373  
     434A      5.098119   435A      5.110123   436A      5.130221  
     437A      5.152707   438A      5.176075   439A      5.189441  
     440A      5.216084   441A      5.219944   442A      5.238000  
     443A      5.257190   444A      5.272833   445A      5.301883  
     446A      5.325035   447A      5.365782   448A      5.379256  
     449A      5.382982   450A      5.396338   451A      5.409421  
     452A      5.433602   453A      5.446065   454A      5.479501  
     455A      5.498295   456A      5.526440   457A      5.537305  
     458A      5.540797   459A      5.572036   460A      5.578805  
     461A      5.582895   462A      5.609853   463A      5.616072  
     464A      5.642339   465A      5.651697   466A      5.665162  
     467A      5.689923   468A      5.697955   469A      5.724816  
     470A      5.762223   471A      5.767773   472A      5.783691  
     473A      5.817292   474A      5.823680   475A      5.839021  
     476A      5.881499   477A      5.909071   478A      5.972503  
     479A      6.014406   480A      6.042889   481A      6.103002  
     482A      6.105119   483A      6.138476   484A      6.161213  
     485A      6.185235   486A      6.213597   487A      6.231918  
     488A      6.283689   489A      6.291202   490A      6.308849  
     491A      6.344622   492A      6.376263   493A      6.436806  
     494A      6.451813   495A      6.511081   496A      6.716265  
     497A      6.754612   498A      6.781064   499A      6.799257  
     500A      6.844767   501A      6.876422   502A      6.995102  
     503A      7.012810   504A      7.018559   505A      7.090748  
     506A      7.101726   507A      7.129924   508A      7.204414  
     509A      7.252682   510A      7.361787   511A      7.374638  
     512A      7.424116   513A      7.527825   514A      7.532303  
     515A      7.689331   516A      7.797859   517A      7.826346  
     518A      7.860702   519A      7.879755   520A      7.913126  
     521A      7.916196   522A      7.959498   523A      7.972403  
     524A      8.081420   525A      8.148881   526A      8.204925  
     527A      8.274629   528A      8.322528   529A      8.358383  
     530A      8.400684   531A      8.420801   532A      8.618885  
     533A      8.679988   534A      8.933630   535A      9.030352  
     536A      9.995148   537A     10.106262   538A     10.335049  
     539A     10.438119   540A     10.702534   541A     10.751146  
     542A     11.091234   543A     12.067320   544A     12.385849  
     545A     13.298075   546A     14.389162   547A     16.335093  
     548A     17.932653   549A     18.671220   550A     52.921338  
     551A     54.371022   552A     67.444921  

    Final Occupation by Irrep:
              A 
    DOCC [    13 ]
    NA   [    13 ]
    NB   [    13 ]

  @DF-RHF Final Energy:  -154.14486993031539

   => Energetics <=

    Nuclear Repulsion Energy =             81.8976053974066787
    One-Electron Energy =                -371.7277054220139689
    Two-Electron Energy =                 135.6852300942919101
    Total Energy =                       -154.1448699303153944

Computation Completed


Properties will be evaluated at   0.000000,   0.000000,   0.000000 [a0]

Properties computed using the SCF density matrix


 Multipole Moments:

 ------------------------------------------------------------------------------------
     Multipole            Electronic (a.u.)      Nuclear  (a.u.)        Total (a.u.)
 ------------------------------------------------------------------------------------

 L = 1.  Multiply by 2.5417464519 to convert [e a0] to [Debye]
 Dipole X            :        -85.9453596           86.6248887            0.6795292
 Dipole Y            :          7.3055002           -7.0771604            0.2283398
 Dipole Z            :          1.0466943           -0.8673919            0.1793025
 Magnitude           :                                                    0.7389509

 ------------------------------------------------------------------------------------

*** tstop() called on ivy at Thu Feb 27 17:49:38 2025
Module time:
	user time   =      33.36 seconds =       0.56 minutes
	system time =       0.89 seconds =       0.01 minutes
	total time  =          5 seconds =       0.08 minutes
Total time:
	user time   =      81.90 seconds =       1.36 minutes
	system time =       4.11 seconds =       0.07 minutes
	total time  =         12 seconds =       0.20 minutes

  //>>>>>>>>>>>>>>>>>>>>>>>>>>>>>>>>>>>//
  //            Monomer B HF           //
  //<<<<<<<<<<<<<<<<<<<<<<<<<<<<<<<<<<<//

   => Libint2 <=

    Primary   basis highest AM E, G, H:  6, 6, 3
    Auxiliary basis highest AM E, G, H:  7, 7, 4
    Onebody   basis highest AM E, G, H:  -, -, -
    Solid Harmonics ordering:            Gaussian

*** tstart() called on ivy
*** at Thu Feb 27 17:49:38 2025

   => Loading Basis Set <=

    Name: AUG-CC-PVTZ
    Role: ORBITAL
    Keyword: BASIS
    atoms 1-2, 10-11 entry C          line   239 file /home/kchung25/miniconda3/envs/p4env/share/psi4/basis/aug-cc-pvtz.gbs 
    atoms 3, 12      entry O          line   331 file /home/kchung25/miniconda3/envs/p4env/share/psi4/basis/aug-cc-pvtz.gbs 
    atoms 4-9, 13-18 entry H          line    40 file /home/kchung25/miniconda3/envs/p4env/share/psi4/basis/aug-cc-pvtz.gbs 


         ---------------------------------------------------------
                                   SCF
               by Justin Turney, Rob Parrish, Andy Simmonett
                          and Daniel G. A. Smith
                              RHF Reference
                       10 Threads,   9536 MiB Core
         ---------------------------------------------------------

  ==> Geometry <==

    Molecular point group: c1
    Full point group: C1

    Geometry (in Angstrom), charge = 0, multiplicity = 1:

       Center              X                  Y                   Z               Mass       
    ------------   -----------------  -----------------  -----------------  -----------------
      Gh(C)           2.303132000000     0.769097000000     0.598623000000    12.000000000000
      Gh(C)           1.771037000000    -0.610986000000     0.306818000000    12.000000000000
      Gh(O)           1.096965000000    -0.672425000000    -0.955992000000    15.994914619570
      Gh(H)           1.720340000000    -0.407252000000    -1.638962000000     1.007825032230
      Gh(H)           2.779410000000     0.788335000000     1.576531000000     1.007825032230
      Gh(H)           1.492158000000     1.491832000000     0.589266000000     1.007825032230
      Gh(H)           3.046547000000     1.060996000000    -0.141675000000     1.007825032230
      Gh(H)           1.016509000000    -0.890517000000     1.035624000000     1.007825032230
      Gh(H)           2.564219000000    -1.357732000000     0.335502000000     1.007825032230
         C           -2.277628000000    -0.737761000000     0.722993000000    12.000000000000
         C           -2.412772000000     0.514797000000    -0.112565000000    12.000000000000
         O           -1.201312000000     1.246748000000    -0.180792000000    15.994914619570
         H           -0.532800000000     0.661067000000    -0.564710000000     1.007825032230
         H           -3.227997000000    -1.265295000000     0.784406000000     1.007825032230
         H           -1.955960000000    -0.484838000000     1.730354000000     1.007825032230
         H           -1.544977000000    -1.410774000000     0.281967000000     1.007825032230
         H           -3.144808000000     1.186726000000     0.328225000000     1.007825032230
         H           -2.762635000000     0.258413000000    -1.115226000000     1.007825032230

  Running in c1 symmetry.

  Rotational constants: A =      0.16219  B =      0.04428  C =      0.04145 [cm^-1]
  Rotational constants: A =   4862.39462  B =   1327.61166  C =   1242.69623 [MHz]
  Nuclear repulsion =   82.079493489535267

  Charge       = 0
  Multiplicity = 1
  Electrons    = 26
  Nalpha       = 13
  Nbeta        = 13

  ==> Algorithm <==

  SCF Algorithm Type is DF.
  DIIS enabled.
  MOM disabled.
  Fractional occupation disabled.
  Guess Type is SAD.
  Energy threshold   = 1.00e-08
  Density threshold  = 1.00e-08
  Integral threshold = 1.00e-12

  ==> Primary Basis <==

  Basis Set: AUG-CC-PVTZ
    Blend: AUG-CC-PVTZ
    Number of shells: 192
    Number of basis functions: 552
    Number of Cartesian functions: 630
    Spherical Harmonics?: true
    Max angular momentum: 3

   => Loading Basis Set <=

    Name: (AUG-CC-PVTZ AUX)
    Role: JKFIT
    Keyword: DF_BASIS_SCF
    atoms 1-2, 10-11 entry C          line   162 file /home/kchung25/miniconda3/envs/p4env/share/psi4/basis/aug-cc-pvtz-jkfit.gbs 
    atoms 3, 12      entry O          line   286 file /home/kchung25/miniconda3/envs/p4env/share/psi4/basis/aug-cc-pvtz-jkfit.gbs 
    atoms 4-9, 13-18 entry H          line    70 file /home/kchung25/miniconda3/envs/p4env/share/psi4/basis/aug-cc-pvtz-jkfit.gbs 

  ==> Integral Setup <==

  ==> DiskDFJK: Density-Fitted J/K Matrices <==

    J tasked:                  Yes
    K tasked:                  Yes
    wK tasked:                  No
    OpenMP threads:             10
    Integrals threads:          10
    Memory [MiB]:             7152
    Algorithm:                Core
    Integral Cache:           LOAD
    Schwarz Cutoff:          1E-12
    Fitting Condition:       1E-10

   => Auxiliary Basis Set <=

  Basis Set: (AUG-CC-PVTZ AUX)
    Blend: AUG-CC-PVTZ-JKFIT
    Number of shells: 348
    Number of basis functions: 1176
    Number of Cartesian functions: 1446
    Spherical Harmonics?: true
    Max angular momentum: 4

  Minimum eigenvalue in the overlap matrix is 9.4339297613E-06.
  Reciprocal condition number of the overlap matrix is 5.1386523235E-07.
    Using symmetric orthogonalization.

  ==> Pre-Iterations <==

  SCF Guess: Superposition of Atomic Densities via on-the-fly atomic UHF (no occupation information).

   -------------------------
    Irrep   Nso     Nmo    
   -------------------------
     A        552     552 
   -------------------------
    Total     552     552
   -------------------------

  ==> Iterations <==

                           Total Energy        Delta E     RMS |[F,P]|

   @DF-RHF iter SAD:  -153.44957054335538   -1.53450e+02   0.00000e+00 
   @DF-RHF iter   1:  -154.00356483422178   -5.53994e-01   9.36411e-04 ADIIS/DIIS
   @DF-RHF iter   2:  -154.11532514903897   -1.11760e-01   4.94282e-04 ADIIS/DIIS
   @DF-RHF iter   3:  -154.14310332806465   -2.77782e-02   8.47188e-05 DIIS
   @DF-RHF iter   4:  -154.14468805759125   -1.58473e-03   3.26770e-05 DIIS
   @DF-RHF iter   5:  -154.14488094330346   -1.92886e-04   6.22499e-06 DIIS
   @DF-RHF iter   6:  -154.14489142868007   -1.04854e-05   1.44170e-06 DIIS
   @DF-RHF iter   7:  -154.14489218670303   -7.58023e-07   4.10433e-07 DIIS
   @DF-RHF iter   8:  -154.14489224376115   -5.70581e-08   1.30367e-07 DIIS
   @DF-RHF iter   9:  -154.14489225009075   -6.32960e-09   3.35208e-08 DIIS
   @DF-RHF iter  10:  -154.14489225053597   -4.45226e-10   6.46159e-09 DIIS
  Energy and wave function converged.


  ==> Post-Iterations <==

    Orbital Energies [Eh]
    ---------------------

    Doubly Occupied:                                                      

       1A    -20.555999     2A    -11.272336     3A    -11.216811  
       4A     -1.358237     5A     -1.014839     6A     -0.848163  
       7A     -0.686913     8A     -0.625178     9A     -0.609677  
      10A     -0.545453    11A     -0.527103    12A     -0.482961  
      13A     -0.443117  

    Virtual:                                                              

      14A      0.020877    15A      0.033087    16A      0.036033  
      17A      0.038158    18A      0.049793    19A      0.051455  
      20A      0.051869    21A      0.064556    22A      0.069710  
      23A      0.074745    24A      0.077490    25A      0.086307  
      26A      0.088968    27A      0.110155    28A      0.112022  
      29A      0.116244    30A      0.119436    31A      0.126160  
      32A      0.131867    33A      0.133706    34A      0.141885  
      35A      0.146469    36A      0.149811    37A      0.154088  
      38A      0.159895    39A      0.166214    40A      0.176424  
      41A      0.181448    42A      0.188648    43A      0.200467  
      44A      0.208115    45A      0.216410    46A      0.231445  
      47A      0.236201    48A      0.240244    49A      0.245653  
      50A      0.260884    51A      0.272486    52A      0.274918  
      53A      0.281546    54A      0.287978    55A      0.297032  
      56A      0.300898    57A      0.308889    58A      0.312179  
      59A      0.314838    60A      0.318910    61A      0.322989  
      62A      0.333728    63A      0.339697    64A      0.341172  
      65A      0.342997    66A      0.352239    67A      0.354670  
      68A      0.357697    69A      0.365286    70A      0.368925  
      71A      0.379529    72A      0.383678    73A      0.389389  
      74A      0.397922    75A      0.401128    76A      0.409644  
      77A      0.416701    78A      0.421556    79A      0.423932  
      80A      0.428017    81A      0.434340    82A      0.439056  
      83A      0.446457    84A      0.452883    85A      0.454172  
      86A      0.457770    87A      0.466223    88A      0.471656  
      89A      0.483003    90A      0.487339    91A      0.494043  
      92A      0.499628    93A      0.501608    94A      0.509223  
      95A      0.512914    96A      0.518555    97A      0.524337  
      98A      0.525765    99A      0.537008   100A      0.544726  
     101A      0.552908   102A      0.553455   103A      0.568028  
     104A      0.572980   105A      0.580502   106A      0.583580  
     107A      0.596420   108A      0.599934   109A      0.605050  
     110A      0.612786   111A      0.624634   112A      0.628279  
     113A      0.636939   114A      0.640618   115A      0.646343  
     116A      0.658850   117A      0.667289   118A      0.676035  
     119A      0.681544   120A      0.690759   121A      0.695226  
     122A      0.704696   123A      0.717362   124A      0.731246  
     125A      0.742899   126A      0.751326   127A      0.770686  
     128A      0.792992   129A      0.799230   130A      0.803566  
     131A      0.810543   132A      0.820611   133A      0.824169  
     134A      0.829821   135A      0.840218   136A      0.849692  
     137A      0.868391   138A      0.871532   139A      0.883902  
     140A      0.898809   141A      0.899818   142A      0.914019  
     143A      0.921522   144A      0.928771   145A      0.937264  
     146A      0.948776   147A      0.954154   148A      0.964046  
     149A      0.968127   150A      0.975160   151A      0.976980  
     152A      0.992195   153A      0.999648   154A      1.004983  
     155A      1.011874   156A      1.016465   157A      1.025989  
     158A      1.040333   159A      1.042042   160A      1.045793  
     161A      1.057628   162A      1.061770   163A      1.071608  
     164A      1.075112   165A      1.085130   166A      1.092711  
     167A      1.097742   168A      1.104161   169A      1.111925  
     170A      1.117169   171A      1.128954   172A      1.134699  
     173A      1.139181   174A      1.144183   175A      1.150086  
     176A      1.156642   177A      1.162025   178A      1.167919  
     179A      1.171723   180A      1.179594   181A      1.185829  
     182A      1.198307   183A      1.201857   184A      1.206732  
     185A      1.219215   186A      1.228370   187A      1.232494  
     188A      1.239437   189A      1.249801   190A      1.254205  
     191A      1.256064   192A      1.266825   193A      1.272367  
     194A      1.283612   195A      1.286153   196A      1.291848  
     197A      1.304112   198A      1.310888   199A      1.318791  
     200A      1.331158   201A      1.344123   202A      1.354593  
     203A      1.357704   204A      1.374932   205A      1.380963  
     206A      1.393353   207A      1.399292   208A      1.407699  
     209A      1.412989   210A      1.426562   211A      1.430891  
     212A      1.438400   213A      1.452206   214A      1.454912  
     215A      1.463018   216A      1.477180   217A      1.481569  
     218A      1.493686   219A      1.507628   220A      1.510710  
     221A      1.521755   222A      1.529234   223A      1.539868  
     224A      1.548487   225A      1.568674   226A      1.573293  
     227A      1.585418   228A      1.596053   229A      1.609430  
     230A      1.621051   231A      1.628726   232A      1.638693  
     233A      1.643131   234A      1.674300   235A      1.680180  
     236A      1.684959   237A      1.687253   238A      1.699726  
     239A      1.707866   240A      1.717143   241A      1.732267  
     242A      1.740337   243A      1.762148   244A      1.767078  
     245A      1.776101   246A      1.787265   247A      1.794786  
     248A      1.804285   249A      1.813260   250A      1.829810  
     251A      1.842519   252A      1.847985   253A      1.851955  
     254A      1.865479   255A      1.869273   256A      1.895928  
     257A      1.908652   258A      1.909021   259A      1.943891  
     260A      1.950839   261A      1.959863   262A      1.981970  
     263A      1.983437   264A      1.995470   265A      2.002519  
     266A      2.007394   267A      2.036564   268A      2.043932  
     269A      2.053160   270A      2.060935   271A      2.072306  
     272A      2.089110   273A      2.094575   274A      2.102126  
     275A      2.128831   276A      2.130955   277A      2.133862  
     278A      2.161664   279A      2.181537   280A      2.187578  
     281A      2.201023   282A      2.207199   283A      2.214461  
     284A      2.237099   285A      2.250782   286A      2.257164  
     287A      2.261822   288A      2.278057   289A      2.294004  
     290A      2.308093   291A      2.317657   292A      2.332824  
     293A      2.336862   294A      2.346847   295A      2.368933  
     296A      2.379270   297A      2.428166   298A      2.438715  
     299A      2.457400   300A      2.473683   301A      2.480593  
     302A      2.496741   303A      2.527544   304A      2.546240  
     305A      2.572315   306A      2.595680   307A      2.638260  
     308A      2.657311   309A      2.668887   310A      2.700852  
     311A      2.705887   312A      2.714033   313A      2.744616  
     314A      2.766545   315A      2.774028   316A      2.779853  
     317A      2.800939   318A      2.830126   319A      2.838011  
     320A      2.876160   321A      2.895180   322A      2.916288  
     323A      2.938260   324A      2.958565   325A      2.962122  
     326A      3.021316   327A      3.028223   328A      3.074228  
     329A      3.095543   330A      3.124213   331A      3.140021  
     332A      3.168593   333A      3.179342   334A      3.184004  
     335A      3.238070   336A      3.266465   337A      3.293884  
     338A      3.317738   339A      3.361540   340A      3.375669  
     341A      3.421715   342A      3.444091   343A      3.481213  
     344A      3.494358   345A      3.511099   346A      3.532712  
     347A      3.546050   348A      3.608642   349A      3.623038  
     350A      3.638402   351A      3.657547   352A      3.676165  
     353A      3.690631   354A      3.699240   355A      3.736349  
     356A      3.764931   357A      3.777200   358A      3.792190  
     359A      3.812074   360A      3.838033   361A      3.851276  
     362A      3.891168   363A      3.921021   364A      3.950755  
     365A      3.968411   366A      3.984170   367A      4.003528  
     368A      4.014204   369A      4.031915   370A      4.061854  
     371A      4.083970   372A      4.109299   373A      4.131221  
     374A      4.145104   375A      4.157166   376A      4.168918  
     377A      4.184445   378A      4.195792   379A      4.202635  
     380A      4.217776   381A      4.224431   382A      4.260648  
     383A      4.263000   384A      4.276549   385A      4.285272  
     386A      4.311278   387A      4.321335   388A      4.345190  
     389A      4.363191   390A      4.385232   391A      4.391179  
     392A      4.434223   393A      4.439810   394A      4.451196  
     395A      4.474041   396A      4.495525   397A      4.504508  
     398A      4.511033   399A      4.547728   400A      4.563691  
     401A      4.575738   402A      4.591000   403A      4.594098  
     404A      4.616282   405A      4.638127   406A      4.649349  
     407A      4.663392   408A      4.671597   409A      4.679054  
     410A      4.684632   411A      4.725317   412A      4.732502  
     413A      4.744917   414A      4.778238   415A      4.796519  
     416A      4.809161   417A      4.823498   418A      4.844343  
     419A      4.861108   420A      4.878479   421A      4.894700  
     422A      4.909954   423A      4.929606   424A      4.950272  
     425A      4.959547   426A      4.965936   427A      4.984373  
     428A      4.998694   429A      5.016806   430A      5.033692  
     431A      5.048540   432A      5.058911   433A      5.068923  
     434A      5.079165   435A      5.082766   436A      5.116978  
     437A      5.152669   438A      5.171528   439A      5.193078  
     440A      5.201475   441A      5.215708   442A      5.239047  
     443A      5.251779   444A      5.267811   445A      5.296718  
     446A      5.317897   447A      5.357225   448A      5.371818  
     449A      5.381393   450A      5.392065   451A      5.427448  
     452A      5.429159   453A      5.444443   454A      5.453345  
     455A      5.494337   456A      5.511589   457A      5.537691  
     458A      5.540386   459A      5.561649   460A      5.570381  
     461A      5.578756   462A      5.606832   463A      5.615530  
     464A      5.633299   465A      5.654588   466A      5.667149  
     467A      5.676751   468A      5.694094   469A      5.700449  
     470A      5.740886   471A      5.750644   472A      5.772661  
     473A      5.792245   474A      5.800933   475A      5.832956  
     476A      5.873796   477A      5.884177   478A      5.965221  
     479A      6.017304   480A      6.031688   481A      6.056452  
     482A      6.089283   483A      6.133717   484A      6.148357  
     485A      6.187923   486A      6.198909   487A      6.223976  
     488A      6.244889   489A      6.276603   490A      6.294766  
     491A      6.331778   492A      6.357741   493A      6.410013  
     494A      6.493593   495A      6.547477   496A      6.698177  
     497A      6.743531   498A      6.763049   499A      6.821243  
     500A      6.848666   501A      6.865194   502A      6.950860  
     503A      6.990849   504A      7.003266   505A      7.042368  
     506A      7.097119   507A      7.140779   508A      7.185025  
     509A      7.205506   510A      7.383112   511A      7.414168  
     512A      7.424466   513A      7.542659   514A      7.558410  
     515A      7.666303   516A      7.781063   517A      7.818381  
     518A      7.864849   519A      7.870182   520A      7.903342  
     521A      7.940297   522A      7.959806   523A      8.007674  
     524A      8.039895   525A      8.139101   526A      8.177329  
     527A      8.267134   528A      8.286091   529A      8.311724  
     530A      8.365668   531A      8.405372   532A      8.560720  
     533A      8.619758   534A      8.899742   535A      8.970339  
     536A     10.006845   537A     10.112526   538A     10.256902  
     539A     10.399896   540A     10.700824   541A     10.738558  
     542A     11.018533   543A     12.092188   544A     12.417860  
     545A     13.252441   546A     14.082954   547A     16.755715  
     548A     17.829934   549A     18.582751   550A     53.181284  
     551A     54.488009   552A     66.625817  

    Final Occupation by Irrep:
              A 
    DOCC [    13 ]
    NA   [    13 ]
    NB   [    13 ]

  @DF-RHF Final Energy:  -154.14489225053597

   => Energetics <=

    Nuclear Repulsion Energy =             82.0794934895352668
    One-Electron Energy =                -372.0751925191662508
    Two-Electron Energy =                 135.8508067790950236
    Total Energy =                       -154.1448922505359747

Computation Completed


Properties will be evaluated at   0.000000,   0.000000,   0.000000 [a0]

Properties computed using the SCF density matrix


 Multipole Moments:

 ------------------------------------------------------------------------------------
     Multipole            Electronic (a.u.)      Nuclear  (a.u.)        Total (a.u.)
 ------------------------------------------------------------------------------------

 L = 1.  Multiply by 2.5417464519 to convert [e a0] to [Debye]
 Dipole X            :         96.0939132          -96.2287717           -0.1348585
 Dipole Y            :        -15.0203552           14.3269567           -0.6933985
 Dipole Z            :         -7.0840525            6.9187560           -0.1652965
 Magnitude           :                                                    0.7254731

 ------------------------------------------------------------------------------------

*** tstop() called on ivy at Thu Feb 27 17:49:43 2025
Module time:
	user time   =      33.08 seconds =       0.55 minutes
	system time =       0.86 seconds =       0.01 minutes
	total time  =          5 seconds =       0.08 minutes
Total time:
	user time   =     114.98 seconds =       1.92 minutes
	system time =       4.97 seconds =       0.08 minutes
	total time  =         17 seconds =       0.28 minutes
  Constructing Basis Sets for SAPT...

   => Loading Basis Set <=

    Name: (AUG-CC-PVTZ AUX)
    Role: RIFIT
    Keyword: DF_BASIS_SAPT
    atoms 1-2, 10-11 entry C          line   148 file /home/kchung25/miniconda3/envs/p4env/share/psi4/basis/aug-cc-pvtz-ri.gbs 
    atoms 3, 12      entry O          line   264 file /home/kchung25/miniconda3/envs/p4env/share/psi4/basis/aug-cc-pvtz-ri.gbs 
    atoms 4-9, 13-18 entry H          line    30 file /home/kchung25/miniconda3/envs/p4env/share/psi4/basis/aug-cc-pvtz-ri.gbs 

   => Loading Basis Set <=

    Name: (AUG-CC-PVTZ AUX)
    Role: JKFIT
    Keyword: DF_BASIS_ELST
    atoms 1-2, 10-11 entry C          line   162 file /home/kchung25/miniconda3/envs/p4env/share/psi4/basis/aug-cc-pvtz-jkfit.gbs 
    atoms 3, 12      entry O          line   286 file /home/kchung25/miniconda3/envs/p4env/share/psi4/basis/aug-cc-pvtz-jkfit.gbs 
    atoms 4-9, 13-18 entry H          line    70 file /home/kchung25/miniconda3/envs/p4env/share/psi4/basis/aug-cc-pvtz-jkfit.gbs 


  //>>>>>>>>>>>>>>>>>>>>>>>>>>>>>>>>>>>//
  //               SAPT2+              //
  //<<<<<<<<<<<<<<<<<<<<<<<<<<<<<<<<<<<//


*** tstart() called on ivy
*** at Thu Feb 27 17:49:43 2025

        SAPT2+  
    Ed Hohenstein
     6 June 2009

      Orbital Information
  --------------------------
    NSO        =       552
    NMO        =       552
    NRI        =      1188
    NOCC A     =        13
    NOCC B     =        13
    FOCC A     =         0
    FOCC B     =         0
    NVIR A     =       539
    NVIR B     =       539

    Estimated memory usage: 3939.5 MB

    Natural Orbital Cutoff:   1.000E-06
    Disp(T3) Truncation:            Yes
    CCD (vv|vv) Truncation:         Yes
    MBPT T2 Truncation:             Yes

    Monomer A: 305 virtual orbitals dropped
    Monomer B: 307 virtual orbitals dropped

    Elst10,r            =    -0.010743756515 [Eh]
    Exch10 (S^2)        =     0.008154911570 [Eh]
    Exch10              =     0.008185904986 [Eh]
    Ind20,r (A<-B)      =    -0.002175436076 [Eh]
    Ind20,r (B<-A)      =    -0.001478056468 [Eh]
    Ind20,r             =    -0.003653492544 [Eh]
    Exch-Ind20,r (A<-B) =     0.001036753749 [Eh]
    Exch-Ind20,r (B<-A) =     0.000964622992 [Eh]
    Exch-Ind20,r        =     0.002001376741 [Eh]
    Disp20              =    -0.006615004268 [Eh]
    Disp20 (NO)         =    -0.005900099162 [Eh]
    Exch-Disp20         =     0.000778382071 [Eh]
    Elst12,r            =    -0.000266322860 [Eh]
    Exch11              =     0.000080710283 [Eh]
    Exch12              =     0.001610668272 [Eh]
    Ind22               =    -0.000667072266 [Eh]
    Disp21              =     0.000423755701 [Eh]
    Disp22 (SDQ)        =    -0.000046495733 [Eh]

    (i =   1 of  13)         30 seconds
    (i =   2 of  13)         59 seconds
    (i =   3 of  13)         88 seconds
    (i =   4 of  13)        117 seconds
    (i =   5 of  13)        146 seconds
    (i =   6 of  13)        176 seconds
    (i =   7 of  13)        205 seconds
    (i =   8 of  13)        235 seconds
    (i =   9 of  13)        264 seconds
    (i =  10 of  13)        294 seconds
    (i =  11 of  13)        323 seconds
    (i =  12 of  13)        352 seconds
    (i =  13 of  13)        381 seconds

    Disp220 (T)         =    -0.000497392433 [Eh]

    (i =   1 of  13)         31 seconds
    (i =   2 of  13)         62 seconds
    (i =   3 of  13)         92 seconds
    (i =   4 of  13)        123 seconds
    (i =   5 of  13)        154 seconds
    (i =   6 of  13)        185 seconds
    (i =   7 of  13)        215 seconds
    (i =   8 of  13)        246 seconds
    (i =   9 of  13)        277 seconds
    (i =  10 of  13)        308 seconds
    (i =  11 of  13)        339 seconds
    (i =  12 of  13)        370 seconds
    (i =  13 of  13)        401 seconds

    Disp202 (T)         =    -0.000543620864 [Eh]

    Disp22 (T)          =    -0.001041013297 [Eh]

    Est. Disp220 (T)    =    -0.000557660639 [Eh]
    Est. Disp202 (T)    =    -0.000609490491 [Eh]

    Est. Disp22 (T)     =    -0.001167151130 [Eh]

    SAPT Results 
  --------------------------------------------------------------------------------------------------------
    Electrostatics                -11.01007938 [mEh]      -6.90892912 [kcal/mol]     -28.90695942 [kJ/mol]
      Elst10,r                    -10.74375652 [mEh]      -6.74180900 [kcal/mol]     -28.20772884 [kJ/mol]
      Elst12,r                     -0.26632286 [mEh]      -0.16712012 [kcal/mol]      -0.69923057 [kJ/mol]

    Exchange                        9.87728354 [mEh]       6.19808900 [kcal/mol]      25.93280436 [kJ/mol]
      Exch10                        8.18590499 [mEh]       5.13673293 [kcal/mol]      21.49209058 [kJ/mol]
      Exch10(S^2)                   8.15491157 [mEh]       5.11728427 [kcal/mol]      21.41071738 [kJ/mol]
      Exch11(S^2)                   0.08071028 [mEh]       0.05064647 [kcal/mol]       0.21190482 [kJ/mol]
      Exch12(S^2)                   1.61066827 [mEh]       1.01070960 [kcal/mol]       4.22880896 [kJ/mol]

    Induction                      -2.94298476 [mEh]      -1.84675082 [kcal/mol]      -7.72680543 [kJ/mol]
      Ind20,r                      -3.65349254 [mEh]      -2.29260118 [kcal/mol]      -9.59224335 [kJ/mol]
      Ind22                        -0.66707227 [mEh]      -0.41859417 [kcal/mol]      -1.75139799 [kJ/mol]
      Exch-Ind20,r                  2.00137674 [mEh]       1.25588287 [kcal/mol]       5.25461391 [kJ/mol]
      Exch-Ind22                    0.36542101 [mEh]       0.22930514 [kcal/mol]       0.95941272 [kJ/mol]
      delta HF,r (2)               -0.98921770 [mEh]      -0.62074348 [kcal/mol]      -2.59719071 [kJ/mol]

    Dispersion                     -6.62651336 [mEh]      -4.15819991 [kcal/mol]     -17.39790842 [kJ/mol]
      Disp20                       -6.61500427 [mEh]      -4.15097785 [kcal/mol]     -17.36769131 [kJ/mol]
      Disp21                        0.42375570 [mEh]       0.26591072 [kcal/mol]       1.11257044 [kJ/mol]
      Disp22 (SDQ)                 -0.04649573 [mEh]      -0.02917651 [kcal/mol]      -0.12207453 [kJ/mol]
      Disp22 (T)                   -1.04101330 [mEh]      -0.65324571 [kcal/mol]      -2.73318003 [kJ/mol]
      Est. Disp22 (T)              -1.16715113 [mEh]      -0.73239839 [kcal/mol]      -3.06435487 [kJ/mol]
      Exch-Disp20                   0.77838207 [mEh]       0.48844212 [kcal/mol]       2.04364185 [kJ/mol]

  Total HF                         -5.19918503 [mEh]      -3.26253786 [kcal/mol]     -13.65045842 [kJ/mol]
  Total SAPT0                     -11.03580723 [mEh]      -6.92507359 [kcal/mol]     -28.97450788 [kJ/mol]
  Total SAPT2                      -9.91240279 [mEh]      -6.22012666 [kcal/mol]     -26.02500995 [kJ/mol]
  Total SAPT2+                    -10.70229396 [mEh]      -6.71579085 [kcal/mol]     -28.09886891 [kJ/mol]

  Special recipe for scaled SAPT0 (see Manual):
    Electrostatics sSAPT0         -10.74375652 [mEh]      -6.74180900 [kcal/mol]     -28.20772884 [kJ/mol]
    Exchange sSAPT0                 8.18590499 [mEh]       5.13673293 [kcal/mol]      21.49209058 [kJ/mol]
    Induction sSAPT0               -2.61842747 [mEh]      -1.64308804 [kcal/mol]      -6.87468038 [kJ/mol]
    Dispersion sSAPT0              -5.82771351 [mEh]      -3.65694544 [kcal/mol]     -15.30065970 [kJ/mol]
  Total sSAPT0                    -11.00399251 [mEh]      -6.90510955 [kcal/mol]     -28.89097835 [kJ/mol]
  --------------------------------------------------------------------------------------------------------

*** tstop() called on ivy at Thu Feb 27 18:06:08 2025
Module time:
	user time   =    4702.95 seconds =      78.38 minutes
	system time =     153.59 seconds =       2.56 minutes
	total time  =        985 seconds =      16.42 minutes
Total time:
	user time   =    4818.01 seconds =      80.30 minutes
	system time =     158.56 seconds =       2.64 minutes
	total time  =       1002 seconds =      16.70 minutes

    Psi4 stopped on: Thursday, 27 February 2025 06:06PM
    Psi4 wall time for execution: 0:16:41.80

*** Psi4 exiting successfully. Buy a developer a beer!
