
    -----------------------------------------------------------------------
          Psi4: An Open-Source Ab Initio Electronic Structure Package
                               Psi4 1.9.1 release

                         Git: Rev {} zzzzzzz 


    D. G. A. Smith, L. A. Burns, A. C. Simmonett, R. M. Parrish,
    M. C. Schieber, R. Galvelis, P. Kraus, H. Kruse, R. Di Remigio,
    A. Alenaizan, A. M. James, S. Lehtola, J. P. Misiewicz, M. Scheurer,
    R. A. Shaw, J. B. Schriber, Y. Xie, Z. L. Glick, D. A. Sirianni,
    J. S. O'Brien, J. M. Waldrop, A. Kumar, E. G. Hohenstein,
    B. P. Pritchard, B. R. Brooks, H. F. Schaefer III, A. Yu. Sokolov,
    K. Patkowski, A. E. DePrince III, U. Bozkaya, R. A. King,
    F. A. Evangelista, J. M. Turney, T. D. Crawford, C. D. Sherrill,
    J. Chem. Phys. 152(18) 184108 (2020). https://doi.org/10.1063/5.0006002

                            Additional Code Authors
    E. T. Seidl, C. L. Janssen, E. F. Valeev, M. L. Leininger,
    J. F. Gonthier, R. M. Richard, H. R. McAlexander, M. Saitow, X. Wang,
    P. Verma, M. H. Lechner, A. Jiang, S. Behnle, A. G. Heide,
    M. F. Herbst, and D. L. Poole

             Previous Authors, Complete List of Code Contributors,
                       and Citations for Specific Modules
    https://github.com/psi4/psi4/blob/master/codemeta.json
    https://github.com/psi4/psi4/graphs/contributors
    http://psicode.org/psi4manual/master/introduction.html#citing-psifour

    -----------------------------------------------------------------------


    Psi4 started on: Thursday, 27 February 2025 04:12PM

    Process ID: 4928
    Host:       ivy
    PSIDATADIR: /home/kchung25/miniconda3/envs/p4env/share/psi4
    Memory:     500.0 MiB
    Threads:    2
    
  ==> Input File <==

--------------------------------------------------------------------------
MEMORY 10 GB

molecule dimer {
0 1
C    2.303132   0.769097   0.598623
C    1.771037  -0.610986   0.306818
O    1.096965  -0.672425  -0.955992
H    1.720340  -0.407252  -1.638962
H    2.779410   0.788335   1.576531
H    1.492158   1.491832   0.589266
H    3.046547   1.060996  -0.141675
H    1.016509  -0.890517   1.035624
H    2.564219  -1.357732   0.335502
--
0 1
C   -1.964227  -0.999466   0.617284
C   -2.099371   0.253092  -0.218274
O   -0.887911   0.985043  -0.286501
H   -0.219399   0.399362  -0.670419
H   -2.914596  -1.527000   0.678697
H   -1.642559  -0.746543   1.624645
H   -1.231576  -1.672479   0.176258
H   -2.831407   0.925021   0.222516
H   -2.449234  -0.003292  -1.220935

units ang
no_reorient
no_com
symmetry c1
}

set {
basis        aug-cc-pVTZ
scf_type     df
}

energy("sapt2+")
--------------------------------------------------------------------------

  Memory set to   9.313 GiB by Python driver.

Scratch directory: /tmp/
   => Loading Basis Set <=

    Name: AUG-CC-PVTZ
    Role: ORBITAL
    Keyword: BASIS
    atoms 1-2, 10-11 entry C          line   239 file /home/kchung25/miniconda3/envs/p4env/share/psi4/basis/aug-cc-pvtz.gbs 
    atoms 3, 12      entry O          line   331 file /home/kchung25/miniconda3/envs/p4env/share/psi4/basis/aug-cc-pvtz.gbs 
    atoms 4-9, 13-18 entry H          line    40 file /home/kchung25/miniconda3/envs/p4env/share/psi4/basis/aug-cc-pvtz.gbs 

   => Loading Basis Set <=

    Name: AUG-CC-PVTZ
    Role: ORBITAL
    Keyword: BASIS
    atoms 1-2, 10-11 entry C          line   239 file /home/kchung25/miniconda3/envs/p4env/share/psi4/basis/aug-cc-pvtz.gbs 
    atoms 3, 12      entry O          line   331 file /home/kchung25/miniconda3/envs/p4env/share/psi4/basis/aug-cc-pvtz.gbs 
    atoms 4-9, 13-18 entry H          line    40 file /home/kchung25/miniconda3/envs/p4env/share/psi4/basis/aug-cc-pvtz.gbs 


  //>>>>>>>>>>>>>>>>>>>>>>>>>>>>>>>>>>>//
  //              Dimer HF             //
  //<<<<<<<<<<<<<<<<<<<<<<<<<<<<<<<<<<<//

   => Libint2 <=

    Primary   basis highest AM E, G, H:  6, 6, 3
    Auxiliary basis highest AM E, G, H:  7, 7, 4
    Onebody   basis highest AM E, G, H:  -, -, -
    Solid Harmonics ordering:            Gaussian

*** tstart() called on ivy
*** at Thu Feb 27 16:12:09 2025

   => Loading Basis Set <=

    Name: AUG-CC-PVTZ
    Role: ORBITAL
    Keyword: BASIS
    atoms 1-2, 10-11 entry C          line   239 file /home/kchung25/miniconda3/envs/p4env/share/psi4/basis/aug-cc-pvtz.gbs 
    atoms 3, 12      entry O          line   331 file /home/kchung25/miniconda3/envs/p4env/share/psi4/basis/aug-cc-pvtz.gbs 
    atoms 4-9, 13-18 entry H          line    40 file /home/kchung25/miniconda3/envs/p4env/share/psi4/basis/aug-cc-pvtz.gbs 


         ---------------------------------------------------------
                                   SCF
               by Justin Turney, Rob Parrish, Andy Simmonett
                          and Daniel G. A. Smith
                              RHF Reference
                        2 Threads,   9536 MiB Core
         ---------------------------------------------------------

  ==> Geometry <==

    Molecular point group: c1
    Full point group: C1

    Geometry (in Angstrom), charge = 0, multiplicity = 1:

       Center              X                  Y                   Z               Mass       
    ------------   -----------------  -----------------  -----------------  -----------------
         C            2.303132000000     0.769097000000     0.598623000000    12.000000000000
         C            1.771037000000    -0.610986000000     0.306818000000    12.000000000000
         O            1.096965000000    -0.672425000000    -0.955992000000    15.994914619570
         H            1.720340000000    -0.407252000000    -1.638962000000     1.007825032230
         H            2.779410000000     0.788335000000     1.576531000000     1.007825032230
         H            1.492158000000     1.491832000000     0.589266000000     1.007825032230
         H            3.046547000000     1.060996000000    -0.141675000000     1.007825032230
         H            1.016509000000    -0.890517000000     1.035624000000     1.007825032230
         H            2.564219000000    -1.357732000000     0.335502000000     1.007825032230
         C           -1.964227000000    -0.999466000000     0.617284000000    12.000000000000
         C           -2.099371000000     0.253092000000    -0.218274000000    12.000000000000
         O           -0.887911000000     0.985043000000    -0.286501000000    15.994914619570
         H           -0.219399000000     0.399362000000    -0.670419000000     1.007825032230
         H           -2.914596000000    -1.527000000000     0.678697000000     1.007825032230
         H           -1.642559000000    -0.746543000000     1.624645000000     1.007825032230
         H           -1.231576000000    -1.672479000000     0.176258000000     1.007825032230
         H           -2.831407000000     0.925021000000     0.222516000000     1.007825032230
         H           -2.449234000000    -0.003292000000    -1.220935000000     1.007825032230

  Running in c1 symmetry.

  Rotational constants: A =      0.17055  B =      0.05139  C =      0.04816 [cm^-1]
  Rotational constants: A =   5112.94462  B =   1540.69503  C =   1443.67775 [MHz]
  Nuclear repulsion =  263.874173023212506

  Charge       = 0
  Multiplicity = 1
  Electrons    = 52
  Nalpha       = 26
  Nbeta        = 26

  ==> Algorithm <==

  SCF Algorithm Type is DF.
  DIIS enabled.
  MOM disabled.
  Fractional occupation disabled.
  Guess Type is SAD.
  Energy threshold   = 1.00e-08
  Density threshold  = 1.00e-08
  Integral threshold = 1.00e-12

  ==> Primary Basis <==

  Basis Set: AUG-CC-PVTZ
    Blend: AUG-CC-PVTZ
    Number of shells: 192
    Number of basis functions: 552
    Number of Cartesian functions: 630
    Spherical Harmonics?: true
    Max angular momentum: 3

   => Loading Basis Set <=

    Name: (AUG-CC-PVTZ AUX)
    Role: JKFIT
    Keyword: DF_BASIS_SCF
    atoms 1-2, 10-11 entry C          line   162 file /home/kchung25/miniconda3/envs/p4env/share/psi4/basis/aug-cc-pvtz-jkfit.gbs 
    atoms 3, 12      entry O          line   286 file /home/kchung25/miniconda3/envs/p4env/share/psi4/basis/aug-cc-pvtz-jkfit.gbs 
    atoms 4-9, 13-18 entry H          line    70 file /home/kchung25/miniconda3/envs/p4env/share/psi4/basis/aug-cc-pvtz-jkfit.gbs 

  ==> Integral Setup <==

  ==> DiskDFJK: Density-Fitted J/K Matrices <==

    J tasked:                  Yes
    K tasked:                  Yes
    wK tasked:                  No
    OpenMP threads:              2
    Integrals threads:           2
    Memory [MiB]:             7152
    Algorithm:                Core
    Integral Cache:           SAVE
    Schwarz Cutoff:          1E-12
    Fitting Condition:       1E-10

   => Auxiliary Basis Set <=

  Basis Set: (AUG-CC-PVTZ AUX)
    Blend: AUG-CC-PVTZ-JKFIT
    Number of shells: 348
    Number of basis functions: 1176
    Number of Cartesian functions: 1446
    Spherical Harmonics?: true
    Max angular momentum: 4

  Minimum eigenvalue in the overlap matrix is 8.1070282392E-06.
  Reciprocal condition number of the overlap matrix is 4.2098262648E-07.
    Using symmetric orthogonalization.

  ==> Pre-Iterations <==

  SCF Guess: Superposition of Atomic Densities via on-the-fly atomic UHF (no occupation information).

   -------------------------
    Irrep   Nso     Nmo    
   -------------------------
     A        552     552 
   -------------------------
    Total     552     552
   -------------------------

  ==> Iterations <==

                           Total Energy        Delta E     RMS |[F,P]|

   @DF-RHF iter SAD:  -307.17518632635608   -3.07175e+02   0.00000e+00 
   @DF-RHF iter   1:  -308.02137914295974   -8.46193e-01   1.28402e-03 DIIS/ADIIS
   @DF-RHF iter   2:  -308.23915740974809   -2.17778e-01   6.40695e-04 DIIS/ADIIS
   @DF-RHF iter   3:  -308.28752905053398   -4.83716e-02   1.16356e-04 DIIS/ADIIS
   @DF-RHF iter   4:  -308.29059793643046   -3.06889e-03   4.15013e-05 DIIS
   @DF-RHF iter   5:  -308.29090587635795   -3.07940e-04   8.95326e-06 DIIS
   @DF-RHF iter   6:  -308.29092681866939   -2.09423e-05   2.06417e-06 DIIS
   @DF-RHF iter   7:  -308.29092830833105   -1.48966e-06   5.93178e-07 DIIS
   @DF-RHF iter   8:  -308.29092841365809   -1.05327e-07   2.10193e-07 DIIS
   @DF-RHF iter   9:  -308.29092842673629   -1.30782e-08   6.78298e-08 DIIS
   @DF-RHF iter  10:  -308.29092842787088   -1.13459e-09   2.25242e-08 DIIS
   @DF-RHF iter  11:  -308.29092842799099   -1.20110e-10   4.69636e-09 DIIS
  Energy and wave function converged.


  ==> Post-Iterations <==

    Orbital Energies [Eh]
    ---------------------

    Doubly Occupied:                                                      

       1A    -20.579103     2A    -20.518929     3A    -11.283861  
       4A    -11.253207     5A    -11.218379     6A    -11.201515  
       7A     -1.384102     8A     -1.328417     9A     -1.024717  
      10A     -0.997852    11A     -0.860034    12A     -0.831657  
      13A     -0.714638    14A     -0.664478    15A     -0.637817  
      16A     -0.626476    17A     -0.602790    18A     -0.589664  
      19A     -0.558700    20A     -0.534896    21A     -0.525318  
      22A     -0.506988    23A     -0.496625    24A     -0.470596  
      25A     -0.451313    26A     -0.417966  

    Virtual:                                                              

      27A      0.026062    28A      0.035921    29A      0.037811  
      30A      0.039662    31A      0.051870    32A      0.053891  
      33A      0.054005    34A      0.065271    35A      0.069296  
      36A      0.079700    37A      0.081573    38A      0.088615  
      39A      0.112399    40A      0.115283    41A      0.120237  
      42A      0.124255    43A      0.126402    44A      0.133574  
      45A      0.139160    46A      0.141980    47A      0.150467  
      48A      0.155134    49A      0.159471    50A      0.163397  
      51A      0.168093    52A      0.175334    53A      0.185027  
      54A      0.189318    55A      0.195596    56A      0.217676  
      57A      0.219365    58A      0.228803    59A      0.235755  
      60A      0.242741    61A      0.249139    62A      0.265802  
      63A      0.273319    64A      0.276576    65A      0.280159  
      66A      0.297012    67A      0.301205    68A      0.303845  
      69A      0.310913    70A      0.313870    71A      0.319318  
      72A      0.329023    73A      0.334020    74A      0.336899  
      75A      0.344891    76A      0.348923    77A      0.351574  
      78A      0.354688    79A      0.365554    80A      0.368176  
      81A      0.371587    82A      0.378603    83A      0.383789  
      84A      0.396354    85A      0.398268    86A      0.403040  
      87A      0.404242    88A      0.410660    89A      0.416758  
      90A      0.426667    91A      0.427903    92A      0.429292  
      93A      0.435301    94A      0.439564    95A      0.443241  
      96A      0.456832    97A      0.458318    98A      0.462541  
      99A      0.470203   100A      0.474228   101A      0.478895  
     102A      0.486553   103A      0.488389   104A      0.492973  
     105A      0.499341   106A      0.504921   107A      0.509580  
     108A      0.510683   109A      0.523518   110A      0.525228  
     111A      0.532902   112A      0.542693   113A      0.545360  
     114A      0.549469   115A      0.555629   116A      0.564372  
     117A      0.567996   118A      0.577281   119A      0.579916  
     120A      0.587518   121A      0.595283   122A      0.603446  
     123A      0.604137   124A      0.617268   125A      0.627762  
     126A      0.632863   127A      0.644334   128A      0.650689  
     129A      0.657461   130A      0.663224   131A      0.670408  
     132A      0.692189   133A      0.713110   134A      0.718905  
     135A      0.733504   136A      0.747525   137A      0.752778  
     138A      0.772179   139A      0.786984   140A      0.791074  
     141A      0.804204   142A      0.807585   143A      0.813541  
     144A      0.827480   145A      0.836270   146A      0.839479  
     147A      0.849214   148A      0.854224   149A      0.857934  
     150A      0.867199   151A      0.881361   152A      0.888963  
     153A      0.894403   154A      0.900331   155A      0.902897  
     156A      0.910517   157A      0.913513   158A      0.919036  
     159A      0.929700   160A      0.937899   161A      0.948322  
     162A      0.954029   163A      0.959145   164A      0.966677  
     165A      0.974314   166A      0.979643   167A      0.989272  
     168A      0.995302   169A      0.999558   170A      1.003159  
     171A      1.011605   172A      1.020526   173A      1.027624  
     174A      1.034179   175A      1.041573   176A      1.047656  
     177A      1.059747   178A      1.063261   179A      1.071870  
     180A      1.091603   181A      1.097379   182A      1.106487  
     183A      1.113941   184A      1.121294   185A      1.126320  
     186A      1.128859   187A      1.135941   188A      1.137457  
     189A      1.143662   190A      1.149999   191A      1.155251  
     192A      1.166408   193A      1.171985   194A      1.173005  
     195A      1.183853   196A      1.192190   197A      1.203389  
     198A      1.212044   199A      1.218732   200A      1.225074  
     201A      1.235858   202A      1.244622   203A      1.258657  
     204A      1.264481   205A      1.279429   206A      1.287374  
     207A      1.291257   208A      1.296465   209A      1.306651  
     210A      1.317710   211A      1.320297   212A      1.327710  
     213A      1.345085   214A      1.356284   215A      1.358293  
     216A      1.368277   217A      1.380995   218A      1.385316  
     219A      1.392490   220A      1.405440   221A      1.415486  
     222A      1.431618   223A      1.441402   224A      1.449464  
     225A      1.459656   226A      1.463872   227A      1.470302  
     228A      1.476524   229A      1.493248   230A      1.505846  
     231A      1.519206   232A      1.526116   233A      1.550609  
     234A      1.552960   235A      1.568916   236A      1.582497  
     237A      1.590454   238A      1.596276   239A      1.607551  
     240A      1.611585   241A      1.622788   242A      1.640588  
     243A      1.651278   244A      1.659879   245A      1.662377  
     246A      1.674318   247A      1.679004   248A      1.682382  
     249A      1.690878   250A      1.707273   251A      1.709224  
     252A      1.713074   253A      1.722965   254A      1.733339  
     255A      1.741006   256A      1.757480   257A      1.765522  
     258A      1.767135   259A      1.776200   260A      1.793669  
     261A      1.800873   262A      1.806263   263A      1.815949  
     264A      1.822780   265A      1.843266   266A      1.850599  
     267A      1.858114   268A      1.871008   269A      1.880213  
     270A      1.890077   271A      1.899645   272A      1.900449  
     273A      1.926854   274A      1.930060   275A      1.945328  
     276A      1.964658   277A      1.970441   278A      1.978385  
     279A      1.988057   280A      2.008640   281A      2.010920  
     282A      2.025920   283A      2.035108   284A      2.057253  
     285A      2.062991   286A      2.072101   287A      2.084192  
     288A      2.097210   289A      2.106566   290A      2.110049  
     291A      2.141006   292A      2.148936   293A      2.157031  
     294A      2.170953   295A      2.187759   296A      2.204632  
     297A      2.223152   298A      2.227482   299A      2.247286  
     300A      2.254767   301A      2.270478   302A      2.280813  
     303A      2.299019   304A      2.315389   305A      2.321265  
     306A      2.339533   307A      2.344978   308A      2.357424  
     309A      2.365146   310A      2.377530   311A      2.402061  
     312A      2.436355   313A      2.452756   314A      2.470493  
     315A      2.472065   316A      2.506883   317A      2.532381  
     318A      2.561861   319A      2.595119   320A      2.632315  
     321A      2.656929   322A      2.685360   323A      2.721126  
     324A      2.733185   325A      2.754243   326A      2.781989  
     327A      2.817833   328A      2.824963   329A      2.852361  
     330A      2.869505   331A      2.879866   332A      2.924061  
     333A      2.936087   334A      2.966105   335A      2.984359  
     336A      3.001380   337A      3.039474   338A      3.053306  
     339A      3.063279   340A      3.089164   341A      3.135203  
     342A      3.161944   343A      3.189677   344A      3.210370  
     345A      3.228431   346A      3.265670   347A      3.284934  
     348A      3.336470   349A      3.346487   350A      3.384716  
     351A      3.418613   352A      3.440898   353A      3.459353  
     354A      3.470338   355A      3.483402   356A      3.510144  
     357A      3.518998   358A      3.537659   359A      3.566708  
     360A      3.600149   361A      3.621819   362A      3.646611  
     363A      3.659592   364A      3.664343   365A      3.673599  
     366A      3.689322   367A      3.708253   368A      3.711474  
     369A      3.715888   370A      3.719466   371A      3.748028  
     372A      3.757514   373A      3.778620   374A      3.784443  
     375A      3.805553   376A      3.815510   377A      3.819999  
     378A      3.838822   379A      3.854550   380A      3.861169  
     381A      3.886598   382A      3.901821   383A      3.929238  
     384A      3.953466   385A      3.970725   386A      3.982665  
     387A      3.985789   388A      3.999950   389A      4.006871  
     390A      4.020746   391A      4.024822   392A      4.040512  
     393A      4.064279   394A      4.084875   395A      4.086316  
     396A      4.093961   397A      4.117301   398A      4.131601  
     399A      4.137006   400A      4.139894   401A      4.171624  
     402A      4.185085   403A      4.190019   404A      4.219098  
     405A      4.224011   406A      4.240965   407A      4.244682  
     408A      4.255939   409A      4.275243   410A      4.293508  
     411A      4.298000   412A      4.328579   413A      4.346894  
     414A      4.374116   415A      4.377734   416A      4.398580  
     417A      4.428757   418A      4.432026   419A      4.458794  
     420A      4.484060   421A      4.502610   422A      4.514357  
     423A      4.552034   424A      4.557965   425A      4.580949  
     426A      4.596356   427A      4.613367   428A      4.618146  
     429A      4.625737   430A      4.659467   431A      4.675809  
     432A      4.691015   433A      4.718642   434A      4.741609  
     435A      4.755541   436A      4.761963   437A      4.788095  
     438A      4.803941   439A      4.805530   440A      4.834839  
     441A      4.847916   442A      4.866446   443A      4.883435  
     444A      4.904315   445A      4.907485   446A      4.913945  
     447A      4.918167   448A      4.953831   449A      4.961855  
     450A      4.982595   451A      4.989205   452A      5.016253  
     453A      5.029611   454A      5.037433   455A      5.045903  
     456A      5.064707   457A      5.098718   458A      5.107271  
     459A      5.111693   460A      5.132954   461A      5.147503  
     462A      5.177245   463A      5.199439   464A      5.214506  
     465A      5.228246   466A      5.233060   467A      5.251804  
     468A      5.271066   469A      5.297463   470A      5.315187  
     471A      5.339958   472A      5.367929   473A      5.402607  
     474A      5.404329   475A      5.426341   476A      5.447955  
     477A      5.471849   478A      5.485492   479A      5.499922  
     480A      5.528045   481A      5.540282   482A      5.568741  
     483A      5.596149   484A      5.609173   485A      5.615154  
     486A      5.633661   487A      5.641759   488A      5.674729  
     489A      5.700459   490A      5.703512   491A      5.762306  
     492A      5.763856   493A      5.792862   494A      5.822788  
     495A      5.831287   496A      5.858034   497A      5.893325  
     498A      5.895014   499A      6.041655   500A      6.051187  
     501A      6.110732   502A      6.126187   503A      6.155139  
     504A      6.198444   505A      6.207229   506A      6.223296  
     507A      6.259285   508A      6.290270   509A      6.303083  
     510A      6.320007   511A      6.360014   512A      6.383592  
     513A      6.450540   514A      6.468078   515A      6.714516  
     516A      6.723660   517A      6.770482   518A      6.788263  
     519A      6.813310   520A      6.878699   521A      6.895266  
     522A      6.910595   523A      7.022658   524A      7.064650  
     525A      7.096396   526A      7.148592   527A      7.203244  
     528A      7.247348   529A      7.342468   530A      7.373528  
     531A      7.492130   532A      7.497396   533A      7.520238  
     534A      7.638897   535A      7.656840   536A      7.697335  
     537A      7.707701   538A      7.770029   539A      7.900314  
     540A      7.952088   541A      8.110581   542A      8.147601  
     543A      8.275042   544A      8.389837   545A      8.678999  
     546A      8.842975   547A     16.690181   548A     17.439476  
     549A     17.918884   550A     17.990075   551A     18.720759  
     552A     18.820455  

    Final Occupation by Irrep:
              A 
    DOCC [    26 ]
    NA   [    26 ]
    NB   [    26 ]

  @DF-RHF Final Energy:  -308.29092842799099

   => Energetics <=

    Nuclear Repulsion Energy =            263.8741730232125065
    One-Electron Energy =                -943.7701276344478174
    Two-Electron Energy =                 371.6050261832443198
    Total Energy =                       -308.2909284279909912

Computation Completed


Properties will be evaluated at   0.000000,   0.000000,   0.000000 [a0]

Properties computed using the SCF density matrix


 Multipole Moments:

 ------------------------------------------------------------------------------------
     Multipole            Electronic (a.u.)      Nuclear  (a.u.)        Total (a.u.)
 ------------------------------------------------------------------------------------

 L = 1.  Multiply by 2.5417464519 to convert [e a0] to [Debye]
 Dipole X            :         -4.9488721            5.7944105            0.8455384
 Dipole Y            :          5.0815952           -5.6085238           -0.5269286
 Dipole Z            :         -0.8997674            0.8575766           -0.0421908
 Magnitude           :                                                    0.9971806

 ------------------------------------------------------------------------------------

*** tstop() called on ivy at Thu Feb 27 16:12:29 2025
Module time:
	user time   =      36.71 seconds =       0.61 minutes
	system time =       1.54 seconds =       0.03 minutes
	total time  =         20 seconds =       0.33 minutes
Total time:
	user time   =      36.71 seconds =       0.61 minutes
	system time =       1.54 seconds =       0.03 minutes
	total time  =         20 seconds =       0.33 minutes

  //>>>>>>>>>>>>>>>>>>>>>>>>>>>>>>>>>>>//
  //            Monomer A HF           //
  //<<<<<<<<<<<<<<<<<<<<<<<<<<<<<<<<<<<//

   => Libint2 <=

    Primary   basis highest AM E, G, H:  6, 6, 3
    Auxiliary basis highest AM E, G, H:  7, 7, 4
    Onebody   basis highest AM E, G, H:  -, -, -
    Solid Harmonics ordering:            Gaussian

*** tstart() called on ivy
*** at Thu Feb 27 16:12:29 2025

   => Loading Basis Set <=

    Name: AUG-CC-PVTZ
    Role: ORBITAL
    Keyword: BASIS
    atoms 1-2, 10-11 entry C          line   239 file /home/kchung25/miniconda3/envs/p4env/share/psi4/basis/aug-cc-pvtz.gbs 
    atoms 3, 12      entry O          line   331 file /home/kchung25/miniconda3/envs/p4env/share/psi4/basis/aug-cc-pvtz.gbs 
    atoms 4-9, 13-18 entry H          line    40 file /home/kchung25/miniconda3/envs/p4env/share/psi4/basis/aug-cc-pvtz.gbs 


         ---------------------------------------------------------
                                   SCF
               by Justin Turney, Rob Parrish, Andy Simmonett
                          and Daniel G. A. Smith
                              RHF Reference
                        2 Threads,   9536 MiB Core
         ---------------------------------------------------------

  ==> Geometry <==

    Molecular point group: c1
    Full point group: C1

    Geometry (in Angstrom), charge = 0, multiplicity = 1:

       Center              X                  Y                   Z               Mass       
    ------------   -----------------  -----------------  -----------------  -----------------
         C            2.303132000000     0.769097000000     0.598623000000    12.000000000000
         C            1.771037000000    -0.610986000000     0.306818000000    12.000000000000
         O            1.096965000000    -0.672425000000    -0.955992000000    15.994914619570
         H            1.720340000000    -0.407252000000    -1.638962000000     1.007825032230
         H            2.779410000000     0.788335000000     1.576531000000     1.007825032230
         H            1.492158000000     1.491832000000     0.589266000000     1.007825032230
         H            3.046547000000     1.060996000000    -0.141675000000     1.007825032230
         H            1.016509000000    -0.890517000000     1.035624000000     1.007825032230
         H            2.564219000000    -1.357732000000     0.335502000000     1.007825032230
      Gh(C)          -1.964227000000    -0.999466000000     0.617284000000    12.000000000000
      Gh(C)          -2.099371000000     0.253092000000    -0.218274000000    12.000000000000
      Gh(O)          -0.887911000000     0.985043000000    -0.286501000000    15.994914619570
      Gh(H)          -0.219399000000     0.399362000000    -0.670419000000     1.007825032230
      Gh(H)          -2.914596000000    -1.527000000000     0.678697000000     1.007825032230
      Gh(H)          -1.642559000000    -0.746543000000     1.624645000000     1.007825032230
      Gh(H)          -1.231576000000    -1.672479000000     0.176258000000     1.007825032230
      Gh(H)          -2.831407000000     0.925021000000     0.222516000000     1.007825032230
      Gh(H)          -2.449234000000    -0.003292000000    -1.220935000000     1.007825032230

  Running in c1 symmetry.

  Rotational constants: A =      0.17055  B =      0.05139  C =      0.04816 [cm^-1]
  Rotational constants: A =   5112.94462  B =   1540.69503  C =   1443.67775 [MHz]
  Nuclear repulsion =   81.897605397406679

  Charge       = 0
  Multiplicity = 1
  Electrons    = 26
  Nalpha       = 13
  Nbeta        = 13

  ==> Algorithm <==

  SCF Algorithm Type is DF.
  DIIS enabled.
  MOM disabled.
  Fractional occupation disabled.
  Guess Type is SAD.
  Energy threshold   = 1.00e-08
  Density threshold  = 1.00e-08
  Integral threshold = 1.00e-12

  ==> Primary Basis <==

  Basis Set: AUG-CC-PVTZ
    Blend: AUG-CC-PVTZ
    Number of shells: 192
    Number of basis functions: 552
    Number of Cartesian functions: 630
    Spherical Harmonics?: true
    Max angular momentum: 3

   => Loading Basis Set <=

    Name: (AUG-CC-PVTZ AUX)
    Role: JKFIT
    Keyword: DF_BASIS_SCF
    atoms 1-2, 10-11 entry C          line   162 file /home/kchung25/miniconda3/envs/p4env/share/psi4/basis/aug-cc-pvtz-jkfit.gbs 
    atoms 3, 12      entry O          line   286 file /home/kchung25/miniconda3/envs/p4env/share/psi4/basis/aug-cc-pvtz-jkfit.gbs 
    atoms 4-9, 13-18 entry H          line    70 file /home/kchung25/miniconda3/envs/p4env/share/psi4/basis/aug-cc-pvtz-jkfit.gbs 

  ==> Integral Setup <==

  ==> DiskDFJK: Density-Fitted J/K Matrices <==

    J tasked:                  Yes
    K tasked:                  Yes
    wK tasked:                  No
    OpenMP threads:              2
    Integrals threads:           2
    Memory [MiB]:             7152
    Algorithm:                Core
    Integral Cache:           LOAD
    Schwarz Cutoff:          1E-12
    Fitting Condition:       1E-10

   => Auxiliary Basis Set <=

  Basis Set: (AUG-CC-PVTZ AUX)
    Blend: AUG-CC-PVTZ-JKFIT
    Number of shells: 348
    Number of basis functions: 1176
    Number of Cartesian functions: 1446
    Spherical Harmonics?: true
    Max angular momentum: 4

  Minimum eigenvalue in the overlap matrix is 8.1070282392E-06.
  Reciprocal condition number of the overlap matrix is 4.2098262648E-07.
    Using symmetric orthogonalization.

  ==> Pre-Iterations <==

  SCF Guess: Superposition of Atomic Densities via on-the-fly atomic UHF (no occupation information).

   -------------------------
    Irrep   Nso     Nmo    
   -------------------------
     A        552     552 
   -------------------------
    Total     552     552
   -------------------------

  ==> Iterations <==

                           Total Energy        Delta E     RMS |[F,P]|

   @DF-RHF iter SAD:  -153.43065402949981   -1.53431e+02   0.00000e+00 
   @DF-RHF iter   1:  -154.00384198200069   -5.73188e-01   9.37023e-04 DIIS/ADIIS
   @DF-RHF iter   2:  -154.11530271310053   -1.11461e-01   4.95879e-04 DIIS/ADIIS
   @DF-RHF iter   3:  -154.14312829834708   -2.78256e-02   8.51977e-05 DIIS
   @DF-RHF iter   4:  -154.14471291806925   -1.58462e-03   3.29294e-05 DIIS
   @DF-RHF iter   5:  -154.14490874943132   -1.95831e-04   6.18976e-06 DIIS
   @DF-RHF iter   6:  -154.14491906403808   -1.03146e-05   1.41914e-06 DIIS
   @DF-RHF iter   7:  -154.14491979431924   -7.30281e-07   4.01848e-07 DIIS
   @DF-RHF iter   8:  -154.14491984886163   -5.45424e-08   1.28308e-07 DIIS
   @DF-RHF iter   9:  -154.14491985502249   -6.16086e-09   3.30809e-08 DIIS
   @DF-RHF iter  10:  -154.14491985546059   -4.38092e-10   6.36814e-09 DIIS
  Energy and wave function converged.


  ==> Post-Iterations <==

    Orbital Energies [Eh]
    ---------------------

    Doubly Occupied:                                                      

       1A    -20.553379     2A    -11.272942     3A    -11.217542  
       4A     -1.352670     5A     -1.016938     6A     -0.848663  
       7A     -0.684507     8A     -0.622410     9A     -0.609820  
      10A     -0.545554    11A     -0.525190    12A     -0.484035  
      13A     -0.444945  

    Virtual:                                                              

      14A      0.025336    15A      0.032778    16A      0.036516  
      17A      0.038090    18A      0.049863    19A      0.052856  
      20A      0.054243    21A      0.062579    22A      0.068259  
      23A      0.078796    24A      0.080233    25A      0.086753  
      26A      0.098811    27A      0.111369    28A      0.114082  
      29A      0.118656    30A      0.123540    31A      0.127659  
      32A      0.130369    33A      0.138510    34A      0.143300  
      35A      0.144725    36A      0.152238    37A      0.160386  
      38A      0.163555    39A      0.170831    40A      0.176727  
      41A      0.187340    42A      0.192958    43A      0.204501  
      44A      0.217926    45A      0.220626    46A      0.227553  
      47A      0.240721    48A      0.244395    49A      0.255361  
      50A      0.263373    51A      0.275714    52A      0.282440  
      53A      0.288388    54A      0.293161    55A      0.299420  
      56A      0.306058    57A      0.311237    58A      0.316212  
      59A      0.322191    60A      0.327427    61A      0.331448  
      62A      0.340402    63A      0.342841    64A      0.344898  
      65A      0.347556    66A      0.352366    67A      0.357254  
      68A      0.363761    69A      0.371011    70A      0.383039  
      71A      0.386784    72A      0.395009    73A      0.403551  
      74A      0.409013    75A      0.412741    76A      0.416965  
      77A      0.418495    78A      0.422452    79A      0.431763  
      80A      0.437152    81A      0.442630    82A      0.449540  
      83A      0.450796    84A      0.460061    85A      0.464646  
      86A      0.470963    87A      0.472214    88A      0.480355  
      89A      0.491235    90A      0.492599    91A      0.497682  
      92A      0.503209    93A      0.510205    94A      0.515698  
      95A      0.522091    96A      0.523820    97A      0.536839  
      98A      0.539401    99A      0.551892   100A      0.556295  
     101A      0.559909   102A      0.568100   103A      0.574548  
     104A      0.581411   105A      0.584016   106A      0.596974  
     107A      0.604071   108A      0.607999   109A      0.620627  
     110A      0.624113   111A      0.635348   112A      0.635903  
     113A      0.647821   114A      0.654748   115A      0.664125  
     116A      0.666772   117A      0.680115   118A      0.688153  
     119A      0.693104   120A      0.694596   121A      0.711167  
     122A      0.723739   123A      0.737381   124A      0.744367  
     125A      0.763100   126A      0.769055   127A      0.774882  
     128A      0.788497   129A      0.808880   130A      0.811284  
     131A      0.826898   132A      0.832250   133A      0.839418  
     134A      0.850145   135A      0.862353   136A      0.871211  
     137A      0.878348   138A      0.881672   139A      0.893240  
     140A      0.901067   141A      0.919672   142A      0.932393  
     143A      0.939659   144A      0.947483   145A      0.954127  
     146A      0.960591   147A      0.965183   148A      0.973042  
     149A      0.978424   150A      0.992192   151A      0.997813  
     152A      1.003821   153A      1.010413   154A      1.017961  
     155A      1.027781   156A      1.034149   157A      1.042172  
     158A      1.053872   159A      1.056796   160A      1.065777  
     161A      1.069399   162A      1.083628   163A      1.089628  
     164A      1.093498   165A      1.101565   166A      1.104815  
     167A      1.111426   168A      1.117036   169A      1.125776  
     170A      1.133550   171A      1.138366   172A      1.144277  
     173A      1.159948   174A      1.165849   175A      1.169322  
     176A      1.171730   177A      1.172360   178A      1.178145  
     179A      1.186674   180A      1.201329   181A      1.205095  
     182A      1.212631   183A      1.219807   184A      1.237182  
     185A      1.243599   186A      1.247687   187A      1.249946  
     188A      1.256531   189A      1.266546   190A      1.272775  
     191A      1.287565   192A      1.289585   193A      1.301186  
     194A      1.308256   195A      1.323846   196A      1.325629  
     197A      1.337556   198A      1.348233   199A      1.351691  
     200A      1.356869   201A      1.371223   202A      1.377198  
     203A      1.390035   204A      1.402108   205A      1.409530  
     206A      1.422046   207A      1.428636   208A      1.437360  
     209A      1.444501   210A      1.457315   211A      1.458372  
     212A      1.469761   213A      1.475092   214A      1.490090  
     215A      1.499979   216A      1.502191   217A      1.507750  
     218A      1.511530   219A      1.529964   220A      1.536701  
     221A      1.552545   222A      1.564602   223A      1.574144  
     224A      1.576792   225A      1.596815   226A      1.605473  
     227A      1.615739   228A      1.633179   229A      1.646759  
     230A      1.656183   231A      1.662848   232A      1.675514  
     233A      1.684886   234A      1.693264   235A      1.710202  
     236A      1.712588   237A      1.724209   238A      1.732589  
     239A      1.739198   240A      1.750233   241A      1.755668  
     242A      1.772659   243A      1.774512   244A      1.798242  
     245A      1.813331   246A      1.831645   247A      1.839051  
     248A      1.848128   249A      1.850798   250A      1.862407  
     251A      1.873902   252A      1.882080   253A      1.905109  
     254A      1.912977   255A      1.925206   256A      1.932332  
     257A      1.940951   258A      1.962195   259A      1.969189  
     260A      1.981182   261A      1.984351   262A      2.005924  
     263A      2.012166   264A      2.028181   265A      2.036473  
     266A      2.039570   267A      2.051089   268A      2.062610  
     269A      2.071501   270A      2.093027   271A      2.107246  
     272A      2.117641   273A      2.125733   274A      2.135386  
     275A      2.156917   276A      2.169100   277A      2.179713  
     278A      2.194444   279A      2.209650   280A      2.217958  
     281A      2.234070   282A      2.244904   283A      2.249261  
     284A      2.264251   285A      2.269643   286A      2.279291  
     287A      2.293936   288A      2.301965   289A      2.311894  
     290A      2.333026   291A      2.339021   292A      2.367315  
     293A      2.382359   294A      2.386323   295A      2.422298  
     296A      2.433793   297A      2.463388   298A      2.484312  
     299A      2.499957   300A      2.508855   301A      2.523801  
     302A      2.551192   303A      2.575887   304A      2.624965  
     305A      2.635288   306A      2.647699   307A      2.656022  
     308A      2.673298   309A      2.718355   310A      2.728704  
     311A      2.744622   312A      2.749701   313A      2.763342  
     314A      2.796666   315A      2.814217   316A      2.841302  
     317A      2.856736   318A      2.858018   319A      2.882007  
     320A      2.910772   321A      2.927767   322A      2.971053  
     323A      2.980919   324A      2.992913   325A      3.023107  
     326A      3.057383   327A      3.068268   328A      3.087649  
     329A      3.106854   330A      3.128481   331A      3.157747  
     332A      3.192686   333A      3.225136   334A      3.249718  
     335A      3.278138   336A      3.299300   337A      3.325677  
     338A      3.435174   339A      3.440843   340A      3.464480  
     341A      3.502538   342A      3.515581   343A      3.535741  
     344A      3.542675   345A      3.597265   346A      3.616647  
     347A      3.634978   348A      3.658084   349A      3.681528  
     350A      3.687634   351A      3.694688   352A      3.716078  
     353A      3.734900   354A      3.736931   355A      3.772549  
     356A      3.800222   357A      3.812573   358A      3.844357  
     359A      3.857237   360A      3.873093   361A      3.923622  
     362A      3.960784   363A      3.965810   364A      3.990674  
     365A      4.007066   366A      4.013202   367A      4.023285  
     368A      4.048155   369A      4.094735   370A      4.097957  
     371A      4.127686   372A      4.138367   373A      4.144315  
     374A      4.160165   375A      4.163007   376A      4.166743  
     377A      4.200952   378A      4.215288   379A      4.220123  
     380A      4.237947   381A      4.251565   382A      4.272823  
     383A      4.281077   384A      4.290650   385A      4.311348  
     386A      4.318883   387A      4.338957   388A      4.377353  
     389A      4.385892   390A      4.413096   391A      4.435912  
     392A      4.440026   393A      4.474265   394A      4.491770  
     395A      4.498153   396A      4.511197   397A      4.532596  
     398A      4.556801   399A      4.569462   400A      4.584726  
     401A      4.616393   402A      4.629969   403A      4.638587  
     404A      4.649532   405A      4.666558   406A      4.694367  
     407A      4.712840   408A      4.714348   409A      4.720652  
     410A      4.736797   411A      4.762454   412A      4.773376  
     413A      4.792865   414A      4.810817   415A      4.816491  
     416A      4.833985   417A      4.843334   418A      4.866124  
     419A      4.876138   420A      4.898278   421A      4.912727  
     422A      4.938027   423A      4.943762   424A      4.966746  
     425A      4.996711   426A      5.008331   427A      5.016929  
     428A      5.023032   429A      5.044223   430A      5.066484  
     431A      5.082615   432A      5.091058   433A      5.102014  
     434A      5.126156   435A      5.157845   436A      5.177456  
     437A      5.183745   438A      5.201588   439A      5.223560  
     440A      5.230771   441A      5.254524   442A      5.284422  
     443A      5.303018   444A      5.317648   445A      5.343290  
     446A      5.359358   447A      5.385100   448A      5.407585  
     449A      5.411941   450A      5.427781   451A      5.445632  
     452A      5.447348   453A      5.462109   454A      5.512663  
     455A      5.523198   456A      5.536362   457A      5.550009  
     458A      5.577436   459A      5.580220   460A      5.604892  
     461A      5.623346   462A      5.631660   463A      5.646891  
     464A      5.668826   465A      5.683245   466A      5.685334  
     467A      5.707913   468A      5.747727   469A      5.752119  
     470A      5.782484   471A      5.787936   472A      5.803281  
     473A      5.850138   474A      5.873984   475A      5.906573  
     476A      5.907869   477A      5.974940   478A      6.013277  
     479A      6.042756   480A      6.050095   481A      6.126951  
     482A      6.138630   483A      6.164540   484A      6.185187  
     485A      6.211196   486A      6.227073   487A      6.243172  
     488A      6.291258   489A      6.311621   490A      6.343883  
     491A      6.393720   492A      6.397480   493A      6.469690  
     494A      6.511181   495A      6.574317   496A      6.747735  
     497A      6.784080   498A      6.794060   499A      6.826114  
     500A      6.861591   501A      6.907001   502A      7.003664  
     503A      7.030149   504A      7.079274   505A      7.122312  
     506A      7.136856   507A      7.211210   508A      7.240354  
     509A      7.281476   510A      7.389401   511A      7.439827  
     512A      7.491167   513A      7.550668   514A      7.661217  
     515A      7.739355   516A      7.810383   517A      7.846986  
     518A      7.891441   519A      7.919524   520A      7.930593  
     521A      7.952162   522A      8.005396   523A      8.080350  
     524A      8.112129   525A      8.208311   526A      8.235207  
     527A      8.319430   528A      8.351005   529A      8.391074  
     530A      8.442244   531A      8.565253   532A      8.692832  
     533A      8.742272   534A      8.963334   535A      9.128823  
     536A     10.043599   537A     10.153525   538A     10.372258  
     539A     10.485431   540A     10.738780   541A     10.783831  
     542A     11.161986   543A     12.124024   544A     12.620013  
     545A     13.336949   546A     14.481420   547A     16.978165  
     548A     18.018630   549A     18.753213   550A     53.050665  
     551A     54.653305   552A     68.353663  

    Final Occupation by Irrep:
              A 
    DOCC [    13 ]
    NA   [    13 ]
    NB   [    13 ]

  @DF-RHF Final Energy:  -154.14491985546059

   => Energetics <=

    Nuclear Repulsion Energy =             81.8976053974066787
    One-Electron Energy =                -371.7278590433879231
    Two-Electron Energy =                 135.6853337905206729
    Total Energy =                       -154.1449198554605857

Computation Completed


Properties will be evaluated at   0.000000,   0.000000,   0.000000 [a0]

Properties computed using the SCF density matrix


 Multipole Moments:

 ------------------------------------------------------------------------------------
     Multipole            Electronic (a.u.)      Nuclear  (a.u.)        Total (a.u.)
 ------------------------------------------------------------------------------------

 L = 1.  Multiply by 2.5417464519 to convert [e a0] to [Debye]
 Dipole X            :        -85.9453803           86.6248887            0.6795084
 Dipole Y            :          7.3055454           -7.0771604            0.2283850
 Dipole Z            :          1.0466570           -0.8673919            0.1792651
 Magnitude           :                                                    0.7389366

 ------------------------------------------------------------------------------------

*** tstop() called on ivy at Thu Feb 27 16:12:42 2025
Module time:
	user time   =      24.04 seconds =       0.40 minutes
	system time =       0.61 seconds =       0.01 minutes
	total time  =         13 seconds =       0.22 minutes
Total time:
	user time   =      60.76 seconds =       1.01 minutes
	system time =       2.15 seconds =       0.04 minutes
	total time  =         33 seconds =       0.55 minutes

  //>>>>>>>>>>>>>>>>>>>>>>>>>>>>>>>>>>>//
  //            Monomer B HF           //
  //<<<<<<<<<<<<<<<<<<<<<<<<<<<<<<<<<<<//

   => Libint2 <=

    Primary   basis highest AM E, G, H:  6, 6, 3
    Auxiliary basis highest AM E, G, H:  7, 7, 4
    Onebody   basis highest AM E, G, H:  -, -, -
    Solid Harmonics ordering:            Gaussian

*** tstart() called on ivy
*** at Thu Feb 27 16:12:42 2025

   => Loading Basis Set <=

    Name: AUG-CC-PVTZ
    Role: ORBITAL
    Keyword: BASIS
    atoms 1-2, 10-11 entry C          line   239 file /home/kchung25/miniconda3/envs/p4env/share/psi4/basis/aug-cc-pvtz.gbs 
    atoms 3, 12      entry O          line   331 file /home/kchung25/miniconda3/envs/p4env/share/psi4/basis/aug-cc-pvtz.gbs 
    atoms 4-9, 13-18 entry H          line    40 file /home/kchung25/miniconda3/envs/p4env/share/psi4/basis/aug-cc-pvtz.gbs 


         ---------------------------------------------------------
                                   SCF
               by Justin Turney, Rob Parrish, Andy Simmonett
                          and Daniel G. A. Smith
                              RHF Reference
                        2 Threads,   9536 MiB Core
         ---------------------------------------------------------

  ==> Geometry <==

    Molecular point group: c1
    Full point group: C1

    Geometry (in Angstrom), charge = 0, multiplicity = 1:

       Center              X                  Y                   Z               Mass       
    ------------   -----------------  -----------------  -----------------  -----------------
      Gh(C)           2.303132000000     0.769097000000     0.598623000000    12.000000000000
      Gh(C)           1.771037000000    -0.610986000000     0.306818000000    12.000000000000
      Gh(O)           1.096965000000    -0.672425000000    -0.955992000000    15.994914619570
      Gh(H)           1.720340000000    -0.407252000000    -1.638962000000     1.007825032230
      Gh(H)           2.779410000000     0.788335000000     1.576531000000     1.007825032230
      Gh(H)           1.492158000000     1.491832000000     0.589266000000     1.007825032230
      Gh(H)           3.046547000000     1.060996000000    -0.141675000000     1.007825032230
      Gh(H)           1.016509000000    -0.890517000000     1.035624000000     1.007825032230
      Gh(H)           2.564219000000    -1.357732000000     0.335502000000     1.007825032230
         C           -1.964227000000    -0.999466000000     0.617284000000    12.000000000000
         C           -2.099371000000     0.253092000000    -0.218274000000    12.000000000000
         O           -0.887911000000     0.985043000000    -0.286501000000    15.994914619570
         H           -0.219399000000     0.399362000000    -0.670419000000     1.007825032230
         H           -2.914596000000    -1.527000000000     0.678697000000     1.007825032230
         H           -1.642559000000    -0.746543000000     1.624645000000     1.007825032230
         H           -1.231576000000    -1.672479000000     0.176258000000     1.007825032230
         H           -2.831407000000     0.925021000000     0.222516000000     1.007825032230
         H           -2.449234000000    -0.003292000000    -1.220935000000     1.007825032230

  Running in c1 symmetry.

  Rotational constants: A =      0.17055  B =      0.05139  C =      0.04816 [cm^-1]
  Rotational constants: A =   5112.94462  B =   1540.69503  C =   1443.67775 [MHz]
  Nuclear repulsion =   82.079493489535267

  Charge       = 0
  Multiplicity = 1
  Electrons    = 26
  Nalpha       = 13
  Nbeta        = 13

  ==> Algorithm <==

  SCF Algorithm Type is DF.
  DIIS enabled.
  MOM disabled.
  Fractional occupation disabled.
  Guess Type is SAD.
  Energy threshold   = 1.00e-08
  Density threshold  = 1.00e-08
  Integral threshold = 1.00e-12

  ==> Primary Basis <==

  Basis Set: AUG-CC-PVTZ
    Blend: AUG-CC-PVTZ
    Number of shells: 192
    Number of basis functions: 552
    Number of Cartesian functions: 630
    Spherical Harmonics?: true
    Max angular momentum: 3

   => Loading Basis Set <=

    Name: (AUG-CC-PVTZ AUX)
    Role: JKFIT
    Keyword: DF_BASIS_SCF
    atoms 1-2, 10-11 entry C          line   162 file /home/kchung25/miniconda3/envs/p4env/share/psi4/basis/aug-cc-pvtz-jkfit.gbs 
    atoms 3, 12      entry O          line   286 file /home/kchung25/miniconda3/envs/p4env/share/psi4/basis/aug-cc-pvtz-jkfit.gbs 
    atoms 4-9, 13-18 entry H          line    70 file /home/kchung25/miniconda3/envs/p4env/share/psi4/basis/aug-cc-pvtz-jkfit.gbs 

  ==> Integral Setup <==

  ==> DiskDFJK: Density-Fitted J/K Matrices <==

    J tasked:                  Yes
    K tasked:                  Yes
    wK tasked:                  No
    OpenMP threads:              2
    Integrals threads:           2
    Memory [MiB]:             7152
    Algorithm:                Core
    Integral Cache:           LOAD
    Schwarz Cutoff:          1E-12
    Fitting Condition:       1E-10

   => Auxiliary Basis Set <=

  Basis Set: (AUG-CC-PVTZ AUX)
    Blend: AUG-CC-PVTZ-JKFIT
    Number of shells: 348
    Number of basis functions: 1176
    Number of Cartesian functions: 1446
    Spherical Harmonics?: true
    Max angular momentum: 4

  Minimum eigenvalue in the overlap matrix is 8.1070282392E-06.
  Reciprocal condition number of the overlap matrix is 4.2098262648E-07.
    Using symmetric orthogonalization.

  ==> Pre-Iterations <==

  SCF Guess: Superposition of Atomic Densities via on-the-fly atomic UHF (no occupation information).

   -------------------------
    Irrep   Nso     Nmo    
   -------------------------
     A        552     552 
   -------------------------
    Total     552     552
   -------------------------

  ==> Iterations <==

                           Total Energy        Delta E     RMS |[F,P]|

   @DF-RHF iter SAD:  -153.44957074055492   -1.53450e+02   0.00000e+00 
   @DF-RHF iter   1:  -154.00359928001399   -5.54029e-01   9.36438e-04 DIIS/ADIIS
   @DF-RHF iter   2:  -154.11536420705539   -1.11765e-01   4.94310e-04 DIIS/ADIIS
   @DF-RHF iter   3:  -154.14314430761598   -2.77801e-02   8.47215e-05 DIIS
   @DF-RHF iter   4:  -154.14472903589021   -1.58473e-03   3.26749e-05 DIIS
   @DF-RHF iter   5:  -154.14492192069741   -1.92885e-04   6.22674e-06 DIIS
   @DF-RHF iter   6:  -154.14493240888484   -1.04882e-05   1.44191e-06 DIIS
   @DF-RHF iter   7:  -154.14493316706944   -7.58185e-07   4.10486e-07 DIIS
   @DF-RHF iter   8:  -154.14493322413711   -5.70677e-08   1.30392e-07 DIIS
   @DF-RHF iter   9:  -154.14493323046935   -6.33224e-09   3.35382e-08 DIIS
   @DF-RHF iter  10:  -154.14493323091617   -4.46818e-10   6.46568e-09 DIIS
  Energy and wave function converged.


  ==> Post-Iterations <==

    Orbital Energies [Eh]
    ---------------------

    Doubly Occupied:                                                      

       1A    -20.555980     2A    -11.272335     3A    -11.216809  
       4A     -1.358224     5A     -1.014836     6A     -0.848160  
       7A     -0.686910     8A     -0.625174     9A     -0.609671  
      10A     -0.545450    11A     -0.527100    12A     -0.482958  
      13A     -0.443110  

    Virtual:                                                              

      14A      0.021342    15A      0.033254    16A      0.036241  
      17A      0.038223    18A      0.050018    19A      0.052140  
      20A      0.052852    21A      0.063940    22A      0.070168  
      23A      0.075649    24A      0.078588    25A      0.087584  
      26A      0.090476    27A      0.110997    28A      0.112774  
      29A      0.116641    30A      0.119006    31A      0.126683  
      32A      0.134120    33A      0.134956    34A      0.142088  
      35A      0.148444    36A      0.151391    37A      0.154601  
      38A      0.163222    39A      0.166410    40A      0.177645  
      41A      0.182737    42A      0.189055    43A      0.204959  
      44A      0.211392    45A      0.219821    46A      0.234882  
      47A      0.240344    48A      0.245869    49A      0.248981  
      50A      0.262235    51A      0.275317    52A      0.275780  
      53A      0.286551    54A      0.289431    55A      0.299248  
      56A      0.304525    57A      0.312987    58A      0.315176  
      59A      0.322519    60A      0.324010    61A      0.331000  
      62A      0.334604    63A      0.341958    64A      0.343648  
      65A      0.348344    66A      0.353351    67A      0.357302  
      68A      0.359308    69A      0.368576    70A      0.372410  
      71A      0.382119    72A      0.387892    73A      0.391316  
      74A      0.401910    75A      0.405295    76A      0.416584  
      77A      0.423338    78A      0.424896    79A      0.430591  
      80A      0.435416    81A      0.436556    82A      0.442138  
      83A      0.453388    84A      0.456359    85A      0.460685  
      86A      0.463826    87A      0.471280    88A      0.481121  
      89A      0.490083    90A      0.497361    91A      0.502243  
      92A      0.505926    93A      0.507976    94A      0.514354  
      95A      0.521334    96A      0.524535    97A      0.527897  
      98A      0.537402    99A      0.539955   100A      0.550210  
     101A      0.556434   102A      0.562649   103A      0.576717  
     104A      0.578059   105A      0.583902   106A      0.597365  
     107A      0.603674   108A      0.610068   109A      0.620072  
     110A      0.625655   111A      0.630068   112A      0.640512  
     113A      0.646762   114A      0.650598   115A      0.654619  
     116A      0.658948   117A      0.674021   118A      0.681434  
     119A      0.686708   120A      0.701953   121A      0.706058  
     122A      0.711850   123A      0.724619   124A      0.738183  
     125A      0.745563   126A      0.758609   127A      0.781096  
     128A      0.803640   129A      0.804937   130A      0.810059  
     131A      0.813979   132A      0.822465   133A      0.828742  
     134A      0.838771   135A      0.841656   136A      0.865550  
     137A      0.879393   138A      0.881630   139A      0.891297  
     140A      0.904187   141A      0.910756   142A      0.915621  
     143A      0.934713   144A      0.936163   145A      0.947703  
     146A      0.953792   147A      0.973059   148A      0.975043  
     149A      0.980328   150A      0.984854   151A      0.989178  
     152A      0.999748   153A      1.010986   154A      1.018481  
     155A      1.020523   156A      1.034180   157A      1.040216  
     158A      1.046719   159A      1.052796   160A      1.061923  
     161A      1.069157   162A      1.077700   163A      1.079956  
     164A      1.096706   165A      1.100780   166A      1.107464  
     167A      1.108509   168A      1.115978   169A      1.125650  
     170A      1.132360   171A      1.135712   172A      1.143442  
     173A      1.156751   174A      1.158158   175A      1.160262  
     176A      1.162708   177A      1.175424   178A      1.183777  
     179A      1.186448   180A      1.200821   181A      1.205508  
     182A      1.214902   183A      1.216925   184A      1.223769  
     185A      1.238208   186A      1.240709   187A      1.248226  
     188A      1.249399   189A      1.256571   190A      1.265342  
     191A      1.275888   192A      1.290726   193A      1.299460  
     194A      1.303408   195A      1.306582   196A      1.319792  
     197A      1.326398   198A      1.334776   199A      1.342560  
     200A      1.349607   201A      1.358279   202A      1.375596  
     203A      1.389307   204A      1.390578   205A      1.401517  
     206A      1.402470   207A      1.419568   208A      1.421475  
     209A      1.434498   210A      1.444239   211A      1.455864  
     212A      1.471924   213A      1.478239   214A      1.485297  
     215A      1.493374   216A      1.502288   217A      1.512812  
     218A      1.518172   219A      1.529717   220A      1.534630  
     221A      1.544177   222A      1.552319   223A      1.558923  
     224A      1.573260   225A      1.598987   226A      1.603414  
     227A      1.620172   228A      1.623614   229A      1.634651  
     230A      1.643743   231A      1.651665   232A      1.664259  
     233A      1.689021   234A      1.695469   235A      1.698002  
     236A      1.707828   237A      1.713510   238A      1.719219  
     239A      1.732631   240A      1.734302   241A      1.756687  
     242A      1.767115   243A      1.776802   244A      1.787236  
     245A      1.789968   246A      1.801997   247A      1.813234  
     248A      1.822227   249A      1.836324   250A      1.850969  
     251A      1.867761   252A      1.875609   253A      1.879548  
     254A      1.909171   255A      1.911672   256A      1.918344  
     257A      1.925491   258A      1.935862   259A      1.963534  
     260A      1.970879   261A      1.983026   262A      1.985422  
     263A      1.999369   264A      2.026982   265A      2.028409  
     266A      2.041027   267A      2.060822   268A      2.070451  
     269A      2.079023   270A      2.086810   271A      2.094165  
     272A      2.105731   273A      2.119795   274A      2.129229  
     275A      2.132211   276A      2.147369   277A      2.151620  
     278A      2.191458   279A      2.201757   280A      2.208654  
     281A      2.219007   282A      2.226460   283A      2.255208  
     284A      2.260111   285A      2.268988   286A      2.279586  
     287A      2.288578   288A      2.306594   289A      2.309838  
     290A      2.332508   291A      2.343819   292A      2.354250  
     293A      2.367901   294A      2.377331   295A      2.403443  
     296A      2.440806   297A      2.454264   298A      2.466881  
     299A      2.480415   300A      2.492873   301A      2.497905  
     302A      2.522396   303A      2.552968   304A      2.586870  
     305A      2.604865   306A      2.645334   307A      2.665245  
     308A      2.682058   309A      2.701587   310A      2.724552  
     311A      2.731377   312A      2.758588   313A      2.775586  
     314A      2.800454   315A      2.809276   316A      2.832982  
     317A      2.841353   318A      2.849758   319A      2.860446  
     320A      2.869817   321A      2.940898   322A      2.953713  
     323A      2.958954   324A      3.002812   325A      3.030103  
     326A      3.062267   327A      3.077338   328A      3.101533  
     329A      3.130325   330A      3.145511   331A      3.182718  
     332A      3.209548   333A      3.217951   334A      3.232159  
     335A      3.266161   336A      3.325335   337A      3.340113  
     338A      3.356103   339A      3.402149   340A      3.419045  
     341A      3.447101   342A      3.496923   343A      3.512161  
     344A      3.519929   345A      3.534581   346A      3.565239  
     347A      3.609492   348A      3.641381   349A      3.662693  
     350A      3.675360   351A      3.693437   352A      3.701663  
     353A      3.710266   354A      3.728578   355A      3.759551  
     356A      3.783629   357A      3.791637   358A      3.814604  
     359A      3.830883   360A      3.858998   361A      3.880370  
     362A      3.893863   363A      3.965850   364A      3.970612  
     365A      3.992698   366A      4.012322   367A      4.018671  
     368A      4.028686   369A      4.056955   370A      4.076949  
     371A      4.108221   372A      4.130595   373A      4.145979  
     374A      4.156391   375A      4.187781   376A      4.201306  
     377A      4.205446   378A      4.217148   379A      4.223870  
     380A      4.232353   381A      4.241915   382A      4.275139  
     383A      4.293676   384A      4.309177   385A      4.323334  
     386A      4.339801   387A      4.345651   388A      4.365720  
     389A      4.395220   390A      4.417014   391A      4.435292  
     392A      4.448012   393A      4.465449   394A      4.480841  
     395A      4.498148   396A      4.511620   397A      4.524699  
     398A      4.533104   399A      4.560873   400A      4.592707  
     401A      4.595488   402A      4.602529   403A      4.625100  
     404A      4.640100   405A      4.658998   406A      4.668718  
     407A      4.687451   408A      4.693318   409A      4.707933  
     410A      4.721620   411A      4.749947   412A      4.753238  
     413A      4.765604   414A      4.784235   415A      4.809873  
     416A      4.828601   417A      4.839438   418A      4.864945  
     419A      4.884598   420A      4.908269   421A      4.911034  
     422A      4.932198   423A      4.957687   424A      4.970877  
     425A      4.987331   426A      5.003330   427A      5.012855  
     428A      5.023181   429A      5.036103   430A      5.048580  
     431A      5.067876   432A      5.090803   433A      5.093892  
     434A      5.108020   435A      5.123456   436A      5.145291  
     437A      5.192052   438A      5.195984   439A      5.230248  
     440A      5.235757   441A      5.251074   442A      5.269473  
     443A      5.280182   444A      5.294247   445A      5.322532  
     446A      5.362991   447A      5.392092   448A      5.395751  
     449A      5.408396   450A      5.421939   451A      5.441141  
     452A      5.456417   453A      5.469837   454A      5.477361  
     455A      5.505757   456A      5.529129   457A      5.540351  
     458A      5.573839   459A      5.577886   460A      5.593799  
     461A      5.608358   462A      5.630017   463A      5.646362  
     464A      5.662085   465A      5.673283   466A      5.691857  
     467A      5.698251   468A      5.711523   469A      5.742053  
     470A      5.754214   471A      5.773515   472A      5.799314  
     473A      5.825663   474A      5.840172   475A      5.880072  
     476A      5.890043   477A      5.971426   478A      6.013467  
     479A      6.033928   480A      6.054746   481A      6.083296  
     482A      6.106821   483A      6.150307   484A      6.194075  
     485A      6.196967   486A      6.215352   487A      6.233998  
     488A      6.263077   489A      6.306152   490A      6.327744  
     491A      6.341587   492A      6.388201   493A      6.433279  
     494A      6.506313   495A      6.623738   496A      6.703006  
     497A      6.762746   498A      6.801107   499A      6.837576  
     500A      6.877850   501A      6.895280   502A      6.971804  
     503A      7.012397   504A      7.026906   505A      7.059127  
     506A      7.108015   507A      7.140145   508A      7.225285  
     509A      7.271809   510A      7.398463   511A      7.443587  
     512A      7.518656   513A      7.569193   514A      7.601652  
     515A      7.706299   516A      7.811658   517A      7.838056  
     518A      7.879862   519A      7.888646   520A      7.933781  
     521A      7.959023   522A      8.004633   523A      8.064241  
     524A      8.154444   525A      8.191626   526A      8.232168  
     527A      8.286487   528A      8.333887   529A      8.371412  
     530A      8.436440   531A      8.509882   532A      8.610169  
     533A      8.685507   534A      8.925623   535A      9.010153  
     536A     10.038290   537A     10.244531   538A     10.312064  
     539A     10.497638   540A     10.755662   541A     10.810983  
     542A     11.039933   543A     12.112074   544A     12.678863  
     545A     13.277286   546A     14.109961   547A     17.247050  
     548A     17.891112   549A     18.734781   550A     53.358455  
     551A     54.577876   552A     67.945138  

    Final Occupation by Irrep:
              A 
    DOCC [    13 ]
    NA   [    13 ]
    NB   [    13 ]

  @DF-RHF Final Energy:  -154.14493323091617

   => Energetics <=

    Nuclear Repulsion Energy =             82.0794934895352668
    One-Electron Energy =                -372.0754154406329235
    Two-Electron Energy =                 135.8509887201815047
    Total Energy =                       -154.1449332309161662

Computation Completed


Properties will be evaluated at   0.000000,   0.000000,   0.000000 [a0]

Properties computed using the SCF density matrix


 Multipole Moments:

 ------------------------------------------------------------------------------------
     Multipole            Electronic (a.u.)      Nuclear  (a.u.)        Total (a.u.)
 ------------------------------------------------------------------------------------

 L = 1.  Multiply by 2.5417464519 to convert [e a0] to [Debye]
 Dipole X            :         80.6956836          -80.8304782           -0.1347946
 Dipole Y            :         -2.1620154            1.4686366           -0.6933788
 Dipole Z            :         -1.8902736            1.7249685           -0.1653051
 Magnitude           :                                                    0.7254444

 ------------------------------------------------------------------------------------

*** tstop() called on ivy at Thu Feb 27 16:12:54 2025
Module time:
	user time   =      23.91 seconds =       0.40 minutes
	system time =       0.60 seconds =       0.01 minutes
	total time  =         12 seconds =       0.20 minutes
Total time:
	user time   =      84.67 seconds =       1.41 minutes
	system time =       2.75 seconds =       0.05 minutes
	total time  =         45 seconds =       0.75 minutes
  Constructing Basis Sets for SAPT...

   => Loading Basis Set <=

    Name: (AUG-CC-PVTZ AUX)
    Role: RIFIT
    Keyword: DF_BASIS_SAPT
    atoms 1-2, 10-11 entry C          line   148 file /home/kchung25/miniconda3/envs/p4env/share/psi4/basis/aug-cc-pvtz-ri.gbs 
    atoms 3, 12      entry O          line   264 file /home/kchung25/miniconda3/envs/p4env/share/psi4/basis/aug-cc-pvtz-ri.gbs 
    atoms 4-9, 13-18 entry H          line    30 file /home/kchung25/miniconda3/envs/p4env/share/psi4/basis/aug-cc-pvtz-ri.gbs 

   => Loading Basis Set <=

    Name: (AUG-CC-PVTZ AUX)
    Role: JKFIT
    Keyword: DF_BASIS_ELST
    atoms 1-2, 10-11 entry C          line   162 file /home/kchung25/miniconda3/envs/p4env/share/psi4/basis/aug-cc-pvtz-jkfit.gbs 
    atoms 3, 12      entry O          line   286 file /home/kchung25/miniconda3/envs/p4env/share/psi4/basis/aug-cc-pvtz-jkfit.gbs 
    atoms 4-9, 13-18 entry H          line    70 file /home/kchung25/miniconda3/envs/p4env/share/psi4/basis/aug-cc-pvtz-jkfit.gbs 


  //>>>>>>>>>>>>>>>>>>>>>>>>>>>>>>>>>>>//
  //               SAPT2+              //
  //<<<<<<<<<<<<<<<<<<<<<<<<<<<<<<<<<<<//


*** tstart() called on ivy
*** at Thu Feb 27 16:12:55 2025

        SAPT2+  
    Ed Hohenstein
     6 June 2009

      Orbital Information
  --------------------------
    NSO        =       552
    NMO        =       552
    NRI        =      1188
    NOCC A     =        13
    NOCC B     =        13
    FOCC A     =         0
    FOCC B     =         0
    NVIR A     =       539
    NVIR B     =       539

    Estimated memory usage: 3939.5 MB

    Natural Orbital Cutoff:   1.000E-06
    Disp(T3) Truncation:            Yes
    CCD (vv|vv) Truncation:         Yes
    MBPT T2 Truncation:             Yes

    Monomer A: 302 virtual orbitals dropped
    Monomer B: 305 virtual orbitals dropped

    Elst10,r            =    -0.024452366290 [Eh]
    Exch10 (S^2)        =     0.031911593730 [Eh]
    Exch10              =     0.032359080935 [Eh]
    Ind20,r (A<-B)      =    -0.008295022448 [Eh]
    Ind20,r (B<-A)      =    -0.006386561163 [Eh]
    Ind20,r             =    -0.014681583611 [Eh]
    Exch-Ind20,r (A<-B) =     0.004392119027 [Eh]
    Exch-Ind20,r (B<-A) =     0.005300204376 [Eh]
    Exch-Ind20,r        =     0.009692323403 [Eh]
    Disp20              =    -0.013894744299 [Eh]
    Disp20 (NO)         =    -0.012312663548 [Eh]
    Exch-Disp20         =     0.002480394649 [Eh]
    Elst12,r            =    -0.001137933273 [Eh]
    Exch11              =     0.000318703940 [Eh]
    Exch12              =     0.004552262231 [Eh]
    Ind22               =    -0.002629446881 [Eh]
    Disp21              =     0.001060007782 [Eh]
    Disp22 (SDQ)        =    -0.000158728495 [Eh]

    (i =   1 of  13)         58 seconds
    (i =   2 of  13)        116 seconds
    (i =   3 of  13)        175 seconds
    (i =   4 of  13)        234 seconds
    (i =   5 of  13)        293 seconds
    (i =   6 of  13)        352 seconds
    (i =   7 of  13)        411 seconds
    (i =   8 of  13)        470 seconds
    (i =   9 of  13)        529 seconds
    (i =  10 of  13)        588 seconds
    (i =  11 of  13)        648 seconds
    (i =  12 of  13)        707 seconds
    (i =  13 of  13)        766 seconds

    Disp220 (T)         =    -0.001048797951 [Eh]

    (i =   1 of  13)         58 seconds
    (i =   2 of  13)        115 seconds
    (i =   3 of  13)        173 seconds
    (i =   4 of  13)        230 seconds
    (i =   5 of  13)        287 seconds
    (i =   6 of  13)        345 seconds
    (i =   7 of  13)        402 seconds
    (i =   8 of  13)        460 seconds
    (i =   9 of  13)        518 seconds
    (i =  10 of  13)        576 seconds
    (i =  11 of  13)        633 seconds
    (i =  12 of  13)        691 seconds
    (i =  13 of  13)        749 seconds

    Disp202 (T)         =    -0.001091102716 [Eh]

    Disp22 (T)          =    -0.002139900667 [Eh]

    Est. Disp220 (T)    =    -0.001183560267 [Eh]
    Est. Disp202 (T)    =    -0.001231300862 [Eh]

    Est. Disp22 (T)     =    -0.002414861129 [Eh]

    SAPT Results 
  --------------------------------------------------------------------------------------------------------
    Electrostatics                -25.59029956 [mEh]     -16.05815541 [kcal/mol]     -67.18732224 [kJ/mol]
      Elst10,r                    -24.45236629 [mEh]     -15.34409150 [kcal/mol]     -64.19967885 [kJ/mol]
      Elst12,r                     -1.13793327 [mEh]      -0.71406391 [kcal/mol]      -2.98764340 [kJ/mol]

    Exchange                       37.23004711 [mEh]      23.36220727 [kcal/mol]      97.74747521 [kJ/mol]
      Exch10                       32.35908094 [mEh]      20.30562985 [kcal/mol]      84.95875529 [kJ/mol]
      Exch10(S^2)                  31.91159373 [mEh]      20.02482739 [kcal/mol]      83.78387779 [kJ/mol]
      Exch11(S^2)                   0.31870394 [mEh]       0.19998974 [kcal/mol]       0.83675708 [kJ/mol]
      Exch12(S^2)                   4.55226223 [mEh]       2.85658768 [kcal/mol]      11.95196284 [kJ/mol]

    Induction                      -9.87562435 [mEh]      -6.19704784 [kcal/mol]     -25.92844817 [kJ/mol]
      Ind20,r                     -14.68158361 [mEh]      -9.21283281 [kcal/mol]     -38.54649246 [kJ/mol]
      Ind22                        -2.62944688 [mEh]      -1.65000283 [kcal/mol]      -6.90361184 [kJ/mol]
      Exch-Ind20,r                  9.69232340 [mEh]       6.08202476 [kcal/mol]      25.44719159 [kJ/mol]
      Exch-Ind22                    1.73587879 [mEh]       1.08928038 [kcal/mol]       4.55754913 [kJ/mol]
      delta HF,r (2)               -3.99279605 [mEh]      -2.50551735 [kcal/mol]     -10.48308459 [kJ/mol]

    Dispersion                    -12.92793149 [mEh]      -8.11239949 [kcal/mol]     -33.94227945 [kJ/mol]
      Disp20                      -13.89474430 [mEh]      -8.71908368 [kcal/mol]     -36.48064613 [kJ/mol]
      Disp21                        1.06000778 [mEh]       0.66516493 [kcal/mol]       2.78305005 [kJ/mol]
      Disp22 (SDQ)                 -0.15872849 [mEh]      -0.09960363 [kcal/mol]      -0.41674161 [kJ/mol]
      Disp22 (T)                   -2.13990067 [mEh]      -1.34280794 [kcal/mol]      -5.61830843 [kJ/mol]
      Est. Disp22 (T)              -2.41486113 [mEh]      -1.51534824 [kcal/mol]      -6.34021702 [kJ/mol]
      Exch-Disp20                   2.48039465 [mEh]       1.55647114 [kcal/mol]       6.51227525 [kJ/mol]

  Total HF                         -1.07534161 [mEh]      -0.67478705 [kcal/mol]      -2.82330902 [kJ/mol]
  Total SAPT0                     -12.48969126 [mEh]      -7.83739959 [kcal/mol]     -32.79167989 [kJ/mol]
  Total SAPT2                      -9.65022646 [mEh]      -6.05560853 [kcal/mol]     -25.33666608 [kJ/mol]
  Total SAPT2+                    -11.16380830 [mEh]      -7.00539547 [kcal/mol]     -29.31057466 [kJ/mol]

  Special recipe for scaled SAPT0 (see Manual):
    Electrostatics sSAPT0         -24.45236629 [mEh]     -15.34409150 [kcal/mol]     -64.19967885 [kJ/mol]
    Exchange sSAPT0                32.35908094 [mEh]      20.30562985 [kcal/mol]      84.95875529 [kJ/mol]
    Induction sSAPT0               -8.56857385 [mEh]      -5.37686127 [kcal/mol]     -22.49678755 [kJ/mol]
    Dispersion sSAPT0             -11.30853399 [mEh]      -7.09621222 [kcal/mol]     -29.69055191 [kJ/mol]
  Total sSAPT0                    -11.97039320 [mEh]      -7.51153514 [kcal/mol]     -31.42826302 [kJ/mol]
  --------------------------------------------------------------------------------------------------------

*** tstop() called on ivy at Thu Feb 27 16:44:08 2025
Module time:
	user time   =    3422.17 seconds =      57.04 minutes
	system time =      47.78 seconds =       0.80 minutes
	total time  =       1873 seconds =      31.22 minutes
Total time:
	user time   =    3506.90 seconds =      58.45 minutes
	system time =      50.53 seconds =       0.84 minutes
	total time  =       1919 seconds =      31.98 minutes

    Psi4 stopped on: Thursday, 27 February 2025 04:44PM
    Psi4 wall time for execution: 0:31:58.94

*** Psi4 exiting successfully. Buy a developer a beer!
