
    -----------------------------------------------------------------------
          Psi4: An Open-Source Ab Initio Electronic Structure Package
                               Psi4 1.9.1 release

                         Git: Rev {} zzzzzzz 


    D. G. A. Smith, L. A. Burns, A. C. Simmonett, R. M. Parrish,
    M. C. Schieber, R. Galvelis, P. Kraus, H. Kruse, R. Di Remigio,
    A. Alenaizan, A. M. James, S. Lehtola, J. P. Misiewicz, M. Scheurer,
    R. A. Shaw, J. B. Schriber, Y. Xie, Z. L. Glick, D. A. Sirianni,
    J. S. O'Brien, J. M. Waldrop, A. Kumar, E. G. Hohenstein,
    B. P. Pritchard, B. R. Brooks, H. F. Schaefer III, A. Yu. Sokolov,
    K. Patkowski, A. E. DePrince III, U. Bozkaya, R. A. King,
    F. A. Evangelista, J. M. Turney, T. D. Crawford, C. D. Sherrill,
    J. Chem. Phys. 152(18) 184108 (2020). https://doi.org/10.1063/5.0006002

                            Additional Code Authors
    E. T. Seidl, C. L. Janssen, E. F. Valeev, M. L. Leininger,
    J. F. Gonthier, R. M. Richard, H. R. McAlexander, M. Saitow, X. Wang,
    P. Verma, M. H. Lechner, A. Jiang, S. Behnle, A. G. Heide,
    M. F. Herbst, and D. L. Poole

             Previous Authors, Complete List of Code Contributors,
                       and Citations for Specific Modules
    https://github.com/psi4/psi4/blob/master/codemeta.json
    https://github.com/psi4/psi4/graphs/contributors
    http://psicode.org/psi4manual/master/introduction.html#citing-psifour

    -----------------------------------------------------------------------


    Psi4 started on: Thursday, 27 February 2025 04:44PM

    Process ID: 5926
    Host:       ivy
    PSIDATADIR: /home/kchung25/miniconda3/envs/p4env/share/psi4
    Memory:     500.0 MiB
    Threads:    2
    
  ==> Input File <==

--------------------------------------------------------------------------
MEMORY 10 GB

molecule dimer {
0 1
C    2.303132   0.769097   0.598623
C    1.771037  -0.610986   0.306818
O    1.096965  -0.672425  -0.955992
H    1.720340  -0.407252  -1.638962
H    2.779410   0.788335   1.576531
H    1.492158   1.491832   0.589266
H    3.046547   1.060996  -0.141675
H    1.016509  -0.890517   1.035624
H    2.564219  -1.357732   0.335502
--
0 1
C   -2.068694  -0.912231   0.652520
C   -2.203838   0.340327  -0.183038
O   -0.992378   1.072278  -0.251265
H   -0.323866   0.486597  -0.635183
H   -3.019063  -1.439765   0.713933
H   -1.747026  -0.659308   1.659881
H   -1.336043  -1.585244   0.211494
H   -2.935874   1.012256   0.257752
H   -2.553701   0.083943  -1.185699

units ang
no_reorient
no_com
symmetry c1
}

set {
basis        aug-cc-pVTZ
scf_type     df
}

energy("sapt2+")
--------------------------------------------------------------------------

  Memory set to   9.313 GiB by Python driver.

Scratch directory: /tmp/
   => Loading Basis Set <=

    Name: AUG-CC-PVTZ
    Role: ORBITAL
    Keyword: BASIS
    atoms 1-2, 10-11 entry C          line   239 file /home/kchung25/miniconda3/envs/p4env/share/psi4/basis/aug-cc-pvtz.gbs 
    atoms 3, 12      entry O          line   331 file /home/kchung25/miniconda3/envs/p4env/share/psi4/basis/aug-cc-pvtz.gbs 
    atoms 4-9, 13-18 entry H          line    40 file /home/kchung25/miniconda3/envs/p4env/share/psi4/basis/aug-cc-pvtz.gbs 

   => Loading Basis Set <=

    Name: AUG-CC-PVTZ
    Role: ORBITAL
    Keyword: BASIS
    atoms 1-2, 10-11 entry C          line   239 file /home/kchung25/miniconda3/envs/p4env/share/psi4/basis/aug-cc-pvtz.gbs 
    atoms 3, 12      entry O          line   331 file /home/kchung25/miniconda3/envs/p4env/share/psi4/basis/aug-cc-pvtz.gbs 
    atoms 4-9, 13-18 entry H          line    40 file /home/kchung25/miniconda3/envs/p4env/share/psi4/basis/aug-cc-pvtz.gbs 


  //>>>>>>>>>>>>>>>>>>>>>>>>>>>>>>>>>>>//
  //              Dimer HF             //
  //<<<<<<<<<<<<<<<<<<<<<<<<<<<<<<<<<<<//

   => Libint2 <=

    Primary   basis highest AM E, G, H:  6, 6, 3
    Auxiliary basis highest AM E, G, H:  7, 7, 4
    Onebody   basis highest AM E, G, H:  -, -, -
    Solid Harmonics ordering:            Gaussian

*** tstart() called on ivy
*** at Thu Feb 27 16:44:09 2025

   => Loading Basis Set <=

    Name: AUG-CC-PVTZ
    Role: ORBITAL
    Keyword: BASIS
    atoms 1-2, 10-11 entry C          line   239 file /home/kchung25/miniconda3/envs/p4env/share/psi4/basis/aug-cc-pvtz.gbs 
    atoms 3, 12      entry O          line   331 file /home/kchung25/miniconda3/envs/p4env/share/psi4/basis/aug-cc-pvtz.gbs 
    atoms 4-9, 13-18 entry H          line    40 file /home/kchung25/miniconda3/envs/p4env/share/psi4/basis/aug-cc-pvtz.gbs 


         ---------------------------------------------------------
                                   SCF
               by Justin Turney, Rob Parrish, Andy Simmonett
                          and Daniel G. A. Smith
                              RHF Reference
                        2 Threads,   9536 MiB Core
         ---------------------------------------------------------

  ==> Geometry <==

    Molecular point group: c1
    Full point group: C1

    Geometry (in Angstrom), charge = 0, multiplicity = 1:

       Center              X                  Y                   Z               Mass       
    ------------   -----------------  -----------------  -----------------  -----------------
         C            2.303132000000     0.769097000000     0.598623000000    12.000000000000
         C            1.771037000000    -0.610986000000     0.306818000000    12.000000000000
         O            1.096965000000    -0.672425000000    -0.955992000000    15.994914619570
         H            1.720340000000    -0.407252000000    -1.638962000000     1.007825032230
         H            2.779410000000     0.788335000000     1.576531000000     1.007825032230
         H            1.492158000000     1.491832000000     0.589266000000     1.007825032230
         H            3.046547000000     1.060996000000    -0.141675000000     1.007825032230
         H            1.016509000000    -0.890517000000     1.035624000000     1.007825032230
         H            2.564219000000    -1.357732000000     0.335502000000     1.007825032230
         C           -2.068694000000    -0.912231000000     0.652520000000    12.000000000000
         C           -2.203838000000     0.340327000000    -0.183038000000    12.000000000000
         O           -0.992378000000     1.072278000000    -0.251265000000    15.994914619570
         H           -0.323866000000     0.486597000000    -0.635183000000     1.007825032230
         H           -3.019063000000    -1.439765000000     0.713933000000     1.007825032230
         H           -1.747026000000    -0.659308000000     1.659881000000     1.007825032230
         H           -1.336043000000    -1.585244000000     0.211494000000     1.007825032230
         H           -2.935874000000     1.012256000000     0.257752000000     1.007825032230
         H           -2.553701000000     0.083943000000    -1.185699000000     1.007825032230

  Running in c1 symmetry.

  Rotational constants: A =      0.16805  B =      0.04901  C =      0.04592 [cm^-1]
  Rotational constants: A =   5037.93923  B =   1469.29593  C =   1376.56314 [MHz]
  Nuclear repulsion =  260.772316594109441

  Charge       = 0
  Multiplicity = 1
  Electrons    = 52
  Nalpha       = 26
  Nbeta        = 26

  ==> Algorithm <==

  SCF Algorithm Type is DF.
  DIIS enabled.
  MOM disabled.
  Fractional occupation disabled.
  Guess Type is SAD.
  Energy threshold   = 1.00e-08
  Density threshold  = 1.00e-08
  Integral threshold = 1.00e-12

  ==> Primary Basis <==

  Basis Set: AUG-CC-PVTZ
    Blend: AUG-CC-PVTZ
    Number of shells: 192
    Number of basis functions: 552
    Number of Cartesian functions: 630
    Spherical Harmonics?: true
    Max angular momentum: 3

   => Loading Basis Set <=

    Name: (AUG-CC-PVTZ AUX)
    Role: JKFIT
    Keyword: DF_BASIS_SCF
    atoms 1-2, 10-11 entry C          line   162 file /home/kchung25/miniconda3/envs/p4env/share/psi4/basis/aug-cc-pvtz-jkfit.gbs 
    atoms 3, 12      entry O          line   286 file /home/kchung25/miniconda3/envs/p4env/share/psi4/basis/aug-cc-pvtz-jkfit.gbs 
    atoms 4-9, 13-18 entry H          line    70 file /home/kchung25/miniconda3/envs/p4env/share/psi4/basis/aug-cc-pvtz-jkfit.gbs 

  ==> Integral Setup <==

  ==> DiskDFJK: Density-Fitted J/K Matrices <==

    J tasked:                  Yes
    K tasked:                  Yes
    wK tasked:                  No
    OpenMP threads:              2
    Integrals threads:           2
    Memory [MiB]:             7152
    Algorithm:                Core
    Integral Cache:           SAVE
    Schwarz Cutoff:          1E-12
    Fitting Condition:       1E-10

   => Auxiliary Basis Set <=

  Basis Set: (AUG-CC-PVTZ AUX)
    Blend: AUG-CC-PVTZ-JKFIT
    Number of shells: 348
    Number of basis functions: 1176
    Number of Cartesian functions: 1446
    Spherical Harmonics?: true
    Max angular momentum: 4

  Minimum eigenvalue in the overlap matrix is 8.5744304612E-06.
  Reciprocal condition number of the overlap matrix is 4.5241620107E-07.
    Using symmetric orthogonalization.

  ==> Pre-Iterations <==

  SCF Guess: Superposition of Atomic Densities via on-the-fly atomic UHF (no occupation information).

   -------------------------
    Irrep   Nso     Nmo    
   -------------------------
     A        552     552 
   -------------------------
    Total     552     552
   -------------------------

  ==> Iterations <==

                           Total Energy        Delta E     RMS |[F,P]|

   @DF-RHF iter SAD:  -307.11206554855409   -3.07112e+02   0.00000e+00 
   @DF-RHF iter   1:  -308.02374536346963   -9.11680e-01   1.28590e-03 ADIIS/DIIS
   @DF-RHF iter   2:  -308.24138801571610   -2.17643e-01   6.44703e-04 ADIIS/DIIS
   @DF-RHF iter   3:  -308.29008286983208   -4.86949e-02   1.16610e-04 ADIIS/DIIS
   @DF-RHF iter   4:  -308.29315233828044   -3.06947e-03   4.20997e-05 DIIS
   @DF-RHF iter   5:  -308.29346853282101   -3.16195e-04   8.89147e-06 DIIS
   @DF-RHF iter   6:  -308.29348934870757   -2.08159e-05   2.04600e-06 DIIS
   @DF-RHF iter   7:  -308.29349084549585   -1.49679e-06   5.65124e-07 DIIS
   @DF-RHF iter   8:  -308.29349094971622   -1.04220e-07   1.81918e-07 DIIS
   @DF-RHF iter   9:  -308.29349096128203   -1.15658e-08   4.95240e-08 DIIS
   @DF-RHF iter  10:  -308.29349096211746   -8.35428e-10   1.62584e-08 DIIS
   @DF-RHF iter  11:  -308.29349096217055   -5.30918e-11   5.19131e-09 DIIS
  Energy and wave function converged.


  ==> Post-Iterations <==

    Orbital Energies [Eh]
    ---------------------

    Doubly Occupied:                                                      

       1A    -20.575932     2A    -20.525779     3A    -11.282723  
       4A    -11.255656     5A    -11.218514     6A    -11.202817  
       7A     -1.378510     8A     -1.333195     9A     -1.023821  
      10A     -0.999543    11A     -0.858599    12A     -0.832924  
      13A     -0.709023    14A     -0.666309    15A     -0.635698  
      16A     -0.624400    17A     -0.605736    18A     -0.591276  
      19A     -0.557659    20A     -0.534032    21A     -0.527812  
      22A     -0.509371    23A     -0.495407    24A     -0.469457  
      25A     -0.454654    26A     -0.421810  

    Virtual:                                                              

      27A      0.026443    28A      0.036006    29A      0.037675  
      30A      0.039717    31A      0.051692    32A      0.053623  
      33A      0.053843    34A      0.065634    35A      0.069237  
      36A      0.079301    37A      0.081391    38A      0.088385  
      39A      0.112393    40A      0.114922    41A      0.120602  
      42A      0.124417    43A      0.126754    44A      0.133425  
      45A      0.138844    46A      0.141315    47A      0.150476  
      48A      0.154378    49A      0.159296    50A      0.162784  
      51A      0.167240    52A      0.174880    53A      0.184940  
      54A      0.189017    55A      0.195632    56A      0.216821  
      57A      0.219057    58A      0.226508    59A      0.234527  
      60A      0.241031    61A      0.248163    62A      0.263871  
      63A      0.272704    64A      0.275316    65A      0.279736  
      66A      0.295917    67A      0.299733    68A      0.302173  
      69A      0.310240    70A      0.312710    71A      0.316064  
      72A      0.327527    73A      0.333803    74A      0.336297  
      75A      0.343606    76A      0.347011    77A      0.349836  
      78A      0.354045    79A      0.364122    80A      0.367155  
      81A      0.371314    82A      0.376589    83A      0.383099  
      84A      0.394226    85A      0.397910    86A      0.401258  
      87A      0.402612    88A      0.408428    89A      0.415441  
      90A      0.425106    91A      0.426073    92A      0.427954  
      93A      0.432180    94A      0.437700    95A      0.442013  
      96A      0.455105    97A      0.455709    98A      0.461956  
      99A      0.467243   100A      0.473064   101A      0.475842  
     102A      0.480577   103A      0.485706   104A      0.488672  
     105A      0.496745   106A      0.503449   107A      0.505932  
     108A      0.508118   109A      0.520681   110A      0.522289  
     111A      0.531865   112A      0.541852   113A      0.542405  
     114A      0.547088   115A      0.554090   116A      0.563131  
     117A      0.565700   118A      0.573852   119A      0.576796  
     120A      0.583822   121A      0.590750   122A      0.602093  
     123A      0.602281   124A      0.616727   125A      0.625081  
     126A      0.629376   127A      0.641930   128A      0.646622  
     129A      0.655223   130A      0.658605   131A      0.669531  
     132A      0.688309   133A      0.711196   134A      0.715826  
     135A      0.731218   136A      0.744350   137A      0.752630  
     138A      0.768245   139A      0.783331   140A      0.790022  
     141A      0.802453   142A      0.807609   143A      0.810538  
     144A      0.825978   145A      0.834184   146A      0.836838  
     147A      0.846901   148A      0.852092   149A      0.854421  
     150A      0.865151   151A      0.880869   152A      0.887415  
     153A      0.890058   154A      0.896066   155A      0.901064  
     156A      0.909038   157A      0.912201   158A      0.915406  
     159A      0.927974   160A      0.936316   161A      0.945937  
     162A      0.950564   163A      0.954942   164A      0.963824  
     165A      0.971315   166A      0.976332   167A      0.983765  
     168A      0.990062   169A      0.997058   170A      1.000804  
     171A      1.004610   172A      1.020154   173A      1.021774  
     174A      1.029979   175A      1.033625   176A      1.045155  
     177A      1.054391   178A      1.060760   179A      1.069378  
     180A      1.087725   181A      1.089749   182A      1.102500  
     183A      1.111405   184A      1.116940   185A      1.119956  
     186A      1.122455   187A      1.133250   188A      1.134571  
     189A      1.142698   190A      1.144255   191A      1.154096  
     192A      1.161950   193A      1.166579   194A      1.169804  
     195A      1.178617   196A      1.188520   197A      1.198908  
     198A      1.206240   199A      1.209833   200A      1.217402  
     201A      1.231211   202A      1.242368   203A      1.252084  
     204A      1.256561   205A      1.269710   206A      1.278756  
     207A      1.285105   208A      1.291859   209A      1.298466  
     210A      1.308831   211A      1.319359   212A      1.320685  
     213A      1.334308   214A      1.345105   215A      1.350153  
     216A      1.363661   217A      1.373907   218A      1.378566  
     219A      1.388328   220A      1.393390   221A      1.407242  
     222A      1.424800   223A      1.431302   224A      1.437908  
     225A      1.452213   226A      1.454793   227A      1.459926  
     228A      1.470966   229A      1.482978   230A      1.489965  
     231A      1.507340   232A      1.516797   233A      1.536743  
     234A      1.544535   235A      1.557110   236A      1.569072  
     237A      1.581218   238A      1.583986   239A      1.598821  
     240A      1.606767   241A      1.617231   242A      1.633690  
     243A      1.640464   244A      1.648600   245A      1.660340  
     246A      1.662510   247A      1.676261   248A      1.680733  
     249A      1.684976   250A      1.702867   251A      1.704927  
     252A      1.708481   253A      1.719241   254A      1.724428  
     255A      1.732285   256A      1.745018   257A      1.757074  
     258A      1.761405   259A      1.775601   260A      1.785561  
     261A      1.797178   262A      1.798025   263A      1.806392  
     264A      1.815048   265A      1.835420   266A      1.846320  
     267A      1.849788   268A      1.859577   269A      1.872803  
     270A      1.886006   271A      1.890090   272A      1.892676  
     273A      1.909046   274A      1.922090   275A      1.936103  
     276A      1.954285   277A      1.958490   278A      1.968121  
     279A      1.982539   280A      1.997015   281A      2.006170  
     282A      2.013751   283A      2.023461   284A      2.046498  
     285A      2.054769   286A      2.066979   287A      2.077245  
     288A      2.081637   289A      2.092853   290A      2.100997  
     291A      2.127842   292A      2.135261   293A      2.151675  
     294A      2.168144   295A      2.178741   296A      2.193097  
     297A      2.209954   298A      2.220197   299A      2.233814  
     300A      2.250817   301A      2.266993   302A      2.273052  
     303A      2.290628   304A      2.307624   305A      2.313587  
     306A      2.332840   307A      2.343909   308A      2.352402  
     309A      2.362744   310A      2.373236   311A      2.393215  
     312A      2.412155   313A      2.443339   314A      2.465048  
     315A      2.468359   316A      2.501246   317A      2.507547  
     318A      2.539916   319A      2.568977   320A      2.624426  
     321A      2.645442   322A      2.669478   323A      2.702657  
     324A      2.730305   325A      2.745356   326A      2.768714  
     327A      2.804917   328A      2.820066   329A      2.838788  
     330A      2.857212   331A      2.868425   332A      2.908870  
     333A      2.925893   334A      2.949456   335A      2.977804  
     336A      2.991522   337A      3.021432   338A      3.044128  
     339A      3.057541   340A      3.076516   341A      3.120979  
     342A      3.135654   343A      3.166535   344A      3.193715  
     345A      3.211899   346A      3.254116   347A      3.266945  
     348A      3.290158   349A      3.331807   350A      3.350160  
     351A      3.421409   352A      3.430161   353A      3.441951  
     354A      3.453627   355A      3.470460   356A      3.503745  
     357A      3.510866   358A      3.523638   359A      3.547296  
     360A      3.584198   361A      3.614037   362A      3.638289  
     363A      3.650787   364A      3.661696   365A      3.671498  
     366A      3.687555   367A      3.699029   368A      3.705435  
     369A      3.709941   370A      3.719907   371A      3.740918  
     372A      3.750348   373A      3.769831   374A      3.779092  
     375A      3.794266   376A      3.806535   377A      3.812971  
     378A      3.831114   379A      3.843358   380A      3.853882  
     381A      3.877016   382A      3.893111   383A      3.921372  
     384A      3.949273   385A      3.966262   386A      3.974699  
     387A      3.977662   388A      3.993559   389A      3.997538  
     390A      4.015232   391A      4.020349   392A      4.031815  
     393A      4.055062   394A      4.076357   395A      4.080804  
     396A      4.088615   397A      4.109073   398A      4.122499  
     399A      4.127688   400A      4.131841   401A      4.160737  
     402A      4.173717   403A      4.180307   404A      4.210806  
     405A      4.221964   406A      4.237077   407A      4.238722  
     408A      4.249667   409A      4.255666   410A      4.274865  
     411A      4.290729   412A      4.319610   413A      4.334743  
     414A      4.349696   415A      4.365796   416A      4.386932  
     417A      4.409624   418A      4.426628   419A      4.450879  
     420A      4.467248   421A      4.495205   422A      4.508660  
     423A      4.541295   424A      4.554077   425A      4.571764  
     426A      4.589248   427A      4.604388   428A      4.606258  
     429A      4.625936   430A      4.648784   431A      4.667464  
     432A      4.681720   433A      4.710283   434A      4.723473  
     435A      4.742645   436A      4.758822   437A      4.778840  
     438A      4.797713   439A      4.800171   440A      4.822858  
     441A      4.833317   442A      4.862672   443A      4.873648  
     444A      4.890092   445A      4.904395   446A      4.908172  
     447A      4.916925   448A      4.938608   449A      4.947645  
     450A      4.972001   451A      4.979271   452A      5.005207  
     453A      5.015684   454A      5.032376   455A      5.038597  
     456A      5.064453   457A      5.080929   458A      5.098073  
     459A      5.098413   460A      5.117356   461A      5.142776  
     462A      5.149760   463A      5.192380   464A      5.203885  
     465A      5.222054   466A      5.227787   467A      5.241284  
     468A      5.251758   469A      5.280621   470A      5.302197  
     471A      5.335853   472A      5.357376   473A      5.388051  
     474A      5.400389   475A      5.406643   476A      5.435522  
     477A      5.460671   478A      5.474379   479A      5.497127  
     480A      5.509831   481A      5.521352   482A      5.564606  
     483A      5.586948   484A      5.590420   485A      5.603565  
     486A      5.620296   487A      5.641971   488A      5.668481  
     489A      5.687798   490A      5.697341   491A      5.738359  
     492A      5.759008   493A      5.786345   494A      5.805347  
     495A      5.812558   496A      5.828483   497A      5.880714  
     498A      5.890348   499A      6.039091   500A      6.045921  
     501A      6.103179   502A      6.119456   503A      6.146899  
     504A      6.184835   505A      6.202698   506A      6.220423  
     507A      6.253904   508A      6.284257   509A      6.295173  
     510A      6.301652   511A      6.350785   512A      6.386571  
     513A      6.441092   514A      6.453685   515A      6.711484  
     516A      6.712815   517A      6.769041   518A      6.781022  
     519A      6.799701   520A      6.869793   521A      6.885141  
     522A      6.907172   523A      7.007169   524A      7.049808  
     525A      7.076058   526A      7.136779   527A      7.215069  
     528A      7.227228   529A      7.319176   530A      7.350171  
     531A      7.460809   532A      7.497077   533A      7.519423  
     534A      7.594828   535A      7.627282   536A      7.643086  
     537A      7.707347   538A      7.744917   539A      7.873952  
     540A      7.922750   541A      8.020527   542A      8.097441  
     543A      8.267174   544A      8.347351   545A      8.669893  
     546A      8.734526   547A     16.466555   548A     17.231949  
     549A     17.892901   550A     17.954785   551A     18.668709  
     552A     18.774551  

    Final Occupation by Irrep:
              A 
    DOCC [    26 ]
    NA   [    26 ]
    NB   [    26 ]

  @DF-RHF Final Energy:  -308.29349096217055

   => Energetics <=

    Nuclear Repulsion Energy =            260.7723165941094408
    One-Electron Energy =                -937.5503020068504156
    Two-Electron Energy =                 368.4844944505703666
    Total Energy =                       -308.2934909621705515

Computation Completed


Properties will be evaluated at   0.000000,   0.000000,   0.000000 [a0]

Properties computed using the SCF density matrix


 Multipole Moments:

 ------------------------------------------------------------------------------------
     Multipole            Electronic (a.u.)      Nuclear  (a.u.)        Total (a.u.)
 ------------------------------------------------------------------------------------

 L = 1.  Multiply by 2.5417464519 to convert [e a0] to [Debye]
 Dipole X            :          0.1363440            0.6616460            0.7979900
 Dipole Y            :          0.8069045           -1.3224171           -0.5155126
 Dipole Z            :         -2.6224740            2.5888227           -0.0336512
 Magnitude           :                                                    0.9506175

 ------------------------------------------------------------------------------------

*** tstop() called on ivy at Thu Feb 27 16:44:31 2025
Module time:
	user time   =      41.23 seconds =       0.69 minutes
	system time =       1.64 seconds =       0.03 minutes
	total time  =         22 seconds =       0.37 minutes
Total time:
	user time   =      41.23 seconds =       0.69 minutes
	system time =       1.64 seconds =       0.03 minutes
	total time  =         22 seconds =       0.37 minutes

  //>>>>>>>>>>>>>>>>>>>>>>>>>>>>>>>>>>>//
  //            Monomer A HF           //
  //<<<<<<<<<<<<<<<<<<<<<<<<<<<<<<<<<<<//

   => Libint2 <=

    Primary   basis highest AM E, G, H:  6, 6, 3
    Auxiliary basis highest AM E, G, H:  7, 7, 4
    Onebody   basis highest AM E, G, H:  -, -, -
    Solid Harmonics ordering:            Gaussian

*** tstart() called on ivy
*** at Thu Feb 27 16:44:31 2025

   => Loading Basis Set <=

    Name: AUG-CC-PVTZ
    Role: ORBITAL
    Keyword: BASIS
    atoms 1-2, 10-11 entry C          line   239 file /home/kchung25/miniconda3/envs/p4env/share/psi4/basis/aug-cc-pvtz.gbs 
    atoms 3, 12      entry O          line   331 file /home/kchung25/miniconda3/envs/p4env/share/psi4/basis/aug-cc-pvtz.gbs 
    atoms 4-9, 13-18 entry H          line    40 file /home/kchung25/miniconda3/envs/p4env/share/psi4/basis/aug-cc-pvtz.gbs 


         ---------------------------------------------------------
                                   SCF
               by Justin Turney, Rob Parrish, Andy Simmonett
                          and Daniel G. A. Smith
                              RHF Reference
                        2 Threads,   9536 MiB Core
         ---------------------------------------------------------

  ==> Geometry <==

    Molecular point group: c1
    Full point group: C1

    Geometry (in Angstrom), charge = 0, multiplicity = 1:

       Center              X                  Y                   Z               Mass       
    ------------   -----------------  -----------------  -----------------  -----------------
         C            2.303132000000     0.769097000000     0.598623000000    12.000000000000
         C            1.771037000000    -0.610986000000     0.306818000000    12.000000000000
         O            1.096965000000    -0.672425000000    -0.955992000000    15.994914619570
         H            1.720340000000    -0.407252000000    -1.638962000000     1.007825032230
         H            2.779410000000     0.788335000000     1.576531000000     1.007825032230
         H            1.492158000000     1.491832000000     0.589266000000     1.007825032230
         H            3.046547000000     1.060996000000    -0.141675000000     1.007825032230
         H            1.016509000000    -0.890517000000     1.035624000000     1.007825032230
         H            2.564219000000    -1.357732000000     0.335502000000     1.007825032230
      Gh(C)          -2.068694000000    -0.912231000000     0.652520000000    12.000000000000
      Gh(C)          -2.203838000000     0.340327000000    -0.183038000000    12.000000000000
      Gh(O)          -0.992378000000     1.072278000000    -0.251265000000    15.994914619570
      Gh(H)          -0.323866000000     0.486597000000    -0.635183000000     1.007825032230
      Gh(H)          -3.019063000000    -1.439765000000     0.713933000000     1.007825032230
      Gh(H)          -1.747026000000    -0.659308000000     1.659881000000     1.007825032230
      Gh(H)          -1.336043000000    -1.585244000000     0.211494000000     1.007825032230
      Gh(H)          -2.935874000000     1.012256000000     0.257752000000     1.007825032230
      Gh(H)          -2.553701000000     0.083943000000    -1.185699000000     1.007825032230

  Running in c1 symmetry.

  Rotational constants: A =      0.16805  B =      0.04901  C =      0.04592 [cm^-1]
  Rotational constants: A =   5037.93923  B =   1469.29593  C =   1376.56314 [MHz]
  Nuclear repulsion =   81.897605397406679

  Charge       = 0
  Multiplicity = 1
  Electrons    = 26
  Nalpha       = 13
  Nbeta        = 13

  ==> Algorithm <==

  SCF Algorithm Type is DF.
  DIIS enabled.
  MOM disabled.
  Fractional occupation disabled.
  Guess Type is SAD.
  Energy threshold   = 1.00e-08
  Density threshold  = 1.00e-08
  Integral threshold = 1.00e-12

  ==> Primary Basis <==

  Basis Set: AUG-CC-PVTZ
    Blend: AUG-CC-PVTZ
    Number of shells: 192
    Number of basis functions: 552
    Number of Cartesian functions: 630
    Spherical Harmonics?: true
    Max angular momentum: 3

   => Loading Basis Set <=

    Name: (AUG-CC-PVTZ AUX)
    Role: JKFIT
    Keyword: DF_BASIS_SCF
    atoms 1-2, 10-11 entry C          line   162 file /home/kchung25/miniconda3/envs/p4env/share/psi4/basis/aug-cc-pvtz-jkfit.gbs 
    atoms 3, 12      entry O          line   286 file /home/kchung25/miniconda3/envs/p4env/share/psi4/basis/aug-cc-pvtz-jkfit.gbs 
    atoms 4-9, 13-18 entry H          line    70 file /home/kchung25/miniconda3/envs/p4env/share/psi4/basis/aug-cc-pvtz-jkfit.gbs 

  ==> Integral Setup <==

  ==> DiskDFJK: Density-Fitted J/K Matrices <==

    J tasked:                  Yes
    K tasked:                  Yes
    wK tasked:                  No
    OpenMP threads:              2
    Integrals threads:           2
    Memory [MiB]:             7152
    Algorithm:                Core
    Integral Cache:           LOAD
    Schwarz Cutoff:          1E-12
    Fitting Condition:       1E-10

   => Auxiliary Basis Set <=

  Basis Set: (AUG-CC-PVTZ AUX)
    Blend: AUG-CC-PVTZ-JKFIT
    Number of shells: 348
    Number of basis functions: 1176
    Number of Cartesian functions: 1446
    Spherical Harmonics?: true
    Max angular momentum: 4

  Minimum eigenvalue in the overlap matrix is 8.5744304612E-06.
  Reciprocal condition number of the overlap matrix is 4.5241620107E-07.
    Using symmetric orthogonalization.

  ==> Pre-Iterations <==

  SCF Guess: Superposition of Atomic Densities via on-the-fly atomic UHF (no occupation information).

   -------------------------
    Irrep   Nso     Nmo    
   -------------------------
     A        552     552 
   -------------------------
    Total     552     552
   -------------------------

  ==> Iterations <==

                           Total Energy        Delta E     RMS |[F,P]|

   @DF-RHF iter SAD:  -153.43065388017538   -1.53431e+02   0.00000e+00 
   @DF-RHF iter   1:  -154.00382058299598   -5.73167e-01   9.37014e-04 ADIIS/DIIS
   @DF-RHF iter   2:  -154.11527921451440   -1.11459e-01   4.95876e-04 ADIIS/DIIS
   @DF-RHF iter   3:  -154.14310503877388   -2.78258e-02   8.51988e-05 DIIS
   @DF-RHF iter   4:  -154.14468967921906   -1.58464e-03   3.29315e-05 DIIS
   @DF-RHF iter   5:  -154.14488552421963   -1.95845e-04   6.18870e-06 DIIS
   @DF-RHF iter   6:  -154.14489583699108   -1.03128e-05   1.41895e-06 DIIS
   @DF-RHF iter   7:  -154.14489656707855   -7.30087e-07   4.01797e-07 DIIS
   @DF-RHF iter   8:  -154.14489662160932   -5.45308e-08   1.28289e-07 DIIS
   @DF-RHF iter   9:  -154.14489662776805   -6.15873e-09   3.30753e-08 DIIS
   @DF-RHF iter  10:  -154.14489662820714   -4.39087e-10   6.36708e-09 DIIS
  Energy and wave function converged.


  ==> Post-Iterations <==

    Orbital Energies [Eh]
    ---------------------

    Doubly Occupied:                                                      

       1A    -20.553384     2A    -11.272940     3A    -11.217542  
       4A     -1.352673     5A     -1.016939     6A     -0.848664  
       7A     -0.684508     8A     -0.622412     9A     -0.609821  
      10A     -0.545554    11A     -0.525191    12A     -0.484036  
      13A     -0.444944  

    Virtual:                                                              

      14A      0.025291    15A      0.032611    16A      0.036474  
      17A      0.038143    18A      0.049738    19A      0.052659  
      20A      0.053991    21A      0.062804    22A      0.068158  
      23A      0.078559    24A      0.080033    25A      0.086194  
      26A      0.098493    27A      0.111189    28A      0.113874  
      29A      0.118726    30A      0.123547    31A      0.127691  
      32A      0.129771    33A      0.138302    34A      0.142975  
      35A      0.144157    36A      0.151368    37A      0.160566  
      38A      0.162614    39A      0.170522    40A      0.176054  
      41A      0.186540    42A      0.192814    43A      0.204490  
      44A      0.216306    45A      0.219645    46A      0.226325  
      47A      0.238955    48A      0.243689    49A      0.254195  
      50A      0.262411    51A      0.274493    52A      0.281962  
      53A      0.287889    54A      0.291439    55A      0.298083  
      56A      0.305434    57A      0.309621    58A      0.314869  
      59A      0.321124    60A      0.326435    61A      0.329307  
      62A      0.340687    63A      0.341416    64A      0.343929  
      65A      0.345742    66A      0.351492    67A      0.356823  
      68A      0.363156    69A      0.370876    70A      0.381846  
      71A      0.385482    72A      0.394076    73A      0.402416  
      74A      0.406858    75A      0.410310    76A      0.414992  
      77A      0.417830    78A      0.421468    79A      0.429286  
      80A      0.435415    81A      0.438540    82A      0.447270  
      83A      0.448869    84A      0.459456    85A      0.463489  
      86A      0.468867    87A      0.471038    88A      0.477580  
      89A      0.488383    90A      0.490985    91A      0.495293  
      92A      0.501517    93A      0.508564    94A      0.514292  
      95A      0.520634    96A      0.521273    97A      0.535934  
      98A      0.536567    99A      0.550346   100A      0.553770  
     101A      0.556986   102A      0.566026   103A      0.572170  
     104A      0.579496   105A      0.583370   106A      0.592135  
     107A      0.602262   108A      0.606048   109A      0.615876  
     110A      0.621183   111A      0.633740   112A      0.634412  
     113A      0.644676   114A      0.653149   115A      0.661198  
     116A      0.664410   117A      0.677189   118A      0.684209  
     119A      0.689457   120A      0.691664   121A      0.705410  
     122A      0.719105   123A      0.735006   124A      0.741248  
     125A      0.760537   126A      0.765779   127A      0.774531  
     128A      0.784210   129A      0.807339   130A      0.810010  
     131A      0.824645   132A      0.828107   133A      0.834655  
     134A      0.847354   135A      0.858728   136A      0.872068  
     137A      0.873863   138A      0.878482   139A      0.891871  
     140A      0.901370   141A      0.916439   142A      0.925528  
     143A      0.935850   144A      0.947953   145A      0.949928  
     146A      0.958622   147A      0.965754   148A      0.971094  
     149A      0.974738   150A      0.988397   151A      0.995647  
     152A      1.000495   153A      1.004008   154A      1.015249  
     155A      1.023466   156A      1.028202   157A      1.038866  
     158A      1.048554   159A      1.053383   160A      1.062528  
     161A      1.066976   162A      1.079760   163A      1.087422  
     164A      1.088940   165A      1.096395   166A      1.099741  
     167A      1.102859   168A      1.114078   169A      1.126028  
     170A      1.128822   171A      1.134496   172A      1.140757  
     173A      1.152224   174A      1.156948   175A      1.164614  
     176A      1.166019   177A      1.171715   178A      1.174379  
     179A      1.182095   180A      1.196217   181A      1.198915  
     182A      1.202691   183A      1.214817   184A      1.232905  
     185A      1.239573   186A      1.242223   187A      1.244930  
     188A      1.252088   189A      1.258250   190A      1.267874  
     191A      1.279160   192A      1.282928   193A      1.295334  
     194A      1.306594   195A      1.318256   196A      1.323003  
     197A      1.329099   198A      1.338781   199A      1.343508  
     200A      1.350202   201A      1.365646   202A      1.369138  
     203A      1.383718   204A      1.397217   205A      1.404793  
     206A      1.414416   207A      1.421745   208A      1.430433  
     209A      1.434255   210A      1.445835   211A      1.451012  
     212A      1.461667   213A      1.463423   214A      1.475428  
     215A      1.489750   216A      1.498270   217A      1.504688  
     218A      1.505491   219A      1.518648   220A      1.529550  
     221A      1.541378   222A      1.555162   223A      1.567769  
     224A      1.571113   225A      1.588112   226A      1.596427  
     227A      1.603208   228A      1.621045   229A      1.638498  
     230A      1.650088   231A      1.657949   232A      1.666581  
     233A      1.680445   234A      1.686983   235A      1.702375  
     236A      1.706292   237A      1.716618   238A      1.726895  
     239A      1.727900   240A      1.737120   241A      1.750191  
     242A      1.760536   243A      1.765268   244A      1.788908  
     245A      1.803858   246A      1.816876   247A      1.832361  
     248A      1.837641   249A      1.845403   250A      1.849347  
     251A      1.867710   252A      1.883227   253A      1.891844  
     254A      1.907080   255A      1.917058   256A      1.922239  
     257A      1.932862   258A      1.944606   259A      1.964766  
     260A      1.967276   261A      1.971695   262A      1.994396  
     263A      2.006297   264A      2.024829   265A      2.030125  
     266A      2.035688   267A      2.040872   268A      2.059199  
     269A      2.069041   270A      2.080633   271A      2.086942  
     272A      2.110227   273A      2.113209   274A      2.124517  
     275A      2.147356   276A      2.160158   277A      2.171493  
     278A      2.187170   279A      2.202841   280A      2.210395  
     281A      2.221908   282A      2.235685   283A      2.242298  
     284A      2.247594   285A      2.261102   286A      2.264504  
     287A      2.277869   288A      2.288226   289A      2.310149  
     290A      2.322099   291A      2.335792   292A      2.350724  
     293A      2.372377   294A      2.379336   295A      2.407639  
     296A      2.422577   297A      2.455925   298A      2.475954  
     299A      2.491159   300A      2.497831   301A      2.516759  
     302A      2.547459   303A      2.567109   304A      2.606448  
     305A      2.616533   306A      2.641152   307A      2.648737  
     308A      2.670256   309A      2.696940   310A      2.716776  
     311A      2.735982   312A      2.739408   313A      2.752074  
     314A      2.792441   315A      2.806092   316A      2.829471  
     317A      2.846037   318A      2.852099   319A      2.876320  
     320A      2.902461   321A      2.907208   322A      2.946639  
     323A      2.967333   324A      2.986314   325A      3.005214  
     326A      3.033776   327A      3.051932   328A      3.073120  
     329A      3.090665   330A      3.108861   331A      3.147280  
     332A      3.178324   333A      3.195171   334A      3.236414  
     335A      3.268421   336A      3.277588   337A      3.313783  
     338A      3.422525   339A      3.441623   340A      3.457514  
     341A      3.483538   342A      3.503402   343A      3.522768  
     344A      3.539547   345A      3.572391   346A      3.599666  
     347A      3.627133   348A      3.637391   349A      3.661060  
     350A      3.677656   351A      3.688121   352A      3.708702  
     353A      3.712817   354A      3.730831   355A      3.769030  
     356A      3.791425   357A      3.804082   358A      3.831474  
     359A      3.843710   360A      3.863639   361A      3.915703  
     362A      3.957504   363A      3.963403   364A      3.980050  
     365A      3.989580   366A      4.000733   367A      4.012149  
     368A      4.029415   369A      4.075592   370A      4.091058  
     371A      4.116425   372A      4.122288   373A      4.132207  
     374A      4.155008   375A      4.161023   376A      4.164228  
     377A      4.190842   378A      4.207068   379A      4.209541  
     380A      4.234563   381A      4.242287   382A      4.269073  
     383A      4.270640   384A      4.284369   385A      4.294043  
     386A      4.310349   387A      4.328971   388A      4.350575  
     389A      4.372537   390A      4.400751   391A      4.426525  
     392A      4.432347   393A      4.466916   394A      4.482478  
     395A      4.485494   396A      4.506095   397A      4.524324  
     398A      4.549815   399A      4.563505   400A      4.578519  
     401A      4.610699   402A      4.622736   403A      4.635457  
     404A      4.645507   405A      4.656728   406A      4.685299  
     407A      4.696804   408A      4.709122   409A      4.714871  
     410A      4.735232   411A      4.762047   412A      4.764093  
     413A      4.783183   414A      4.800195   415A      4.804774  
     416A      4.829068   417A      4.843329   418A      4.861367  
     419A      4.870752   420A      4.885069   421A      4.906985  
     422A      4.931391   423A      4.939241   424A      4.958624  
     425A      4.983341   426A      4.997216   427A      5.008836  
     428A      5.015489   429A      5.034518   430A      5.041272  
     431A      5.075869   432A      5.083319   433A      5.092187  
     434A      5.119460   435A      5.146936   436A      5.156796  
     437A      5.170557   438A      5.200210   439A      5.214261  
     440A      5.227674   441A      5.243183   442A      5.261161  
     443A      5.289751   444A      5.299108   445A      5.330631  
     446A      5.345154   447A      5.378313   448A      5.392930  
     449A      5.405409   450A      5.412267   451A      5.436037  
     452A      5.445107   453A      5.457775   454A      5.503116  
     455A      5.506243   456A      5.530972   457A      5.539795  
     458A      5.565473   459A      5.579047   460A      5.597292  
     461A      5.607653   462A      5.624467   463A      5.637843  
     464A      5.653869   465A      5.660732   466A      5.679989  
     467A      5.695447   468A      5.718632   469A      5.739720  
     470A      5.772521   471A      5.780028   472A      5.800553  
     473A      5.838001   474A      5.861676   475A      5.883277  
     476A      5.898903   477A      5.939743   478A      5.996815  
     479A      6.029775   480A      6.045903   481A      6.114112  
     482A      6.126520   483A      6.155347   484A      6.169375  
     485A      6.200110   486A      6.222615   487A      6.236459  
     488A      6.285502   489A      6.295042   490A      6.313003  
     491A      6.368208   492A      6.388318   493A      6.455174  
     494A      6.511225   495A      6.565574   496A      6.731846  
     497A      6.778039   498A      6.788371   499A      6.818181  
     500A      6.855136   501A      6.893780   502A      7.000286  
     503A      7.030014   504A      7.061377   505A      7.110662  
     506A      7.153094   507A      7.180660   508A      7.224796  
     509A      7.271026   510A      7.376250   511A      7.426021  
     512A      7.465964   513A      7.541713   514A      7.600714  
     515A      7.727191   516A      7.804805   517A      7.840458  
     518A      7.882790   519A      7.890972   520A      7.924591  
     521A      7.938950   522A      7.991023   523A      8.007177  
     524A      8.097458   525A      8.183219   526A      8.224440  
     527A      8.297227   528A      8.340654   529A      8.384027  
     530A      8.430020   531A      8.481696   532A      8.676212  
     533A      8.690665   534A      8.952900   535A      9.089931  
     536A     10.023458   537A     10.134113   538A     10.357762  
     539A     10.465049   540A     10.725104   541A     10.771272  
     542A     11.132593   543A     12.100266   544A     12.524237  
     545A     13.319340   546A     14.442921   547A     16.718026  
     548A     17.982738   549A     18.718831   550A     53.003865  
     551A     54.548527   552A     68.014592  

    Final Occupation by Irrep:
              A 
    DOCC [    13 ]
    NA   [    13 ]
    NB   [    13 ]

  @DF-RHF Final Energy:  -154.14489662820714

   => Energetics <=

    Nuclear Repulsion Energy =             81.8976053974066787
    One-Electron Energy =                -371.7277888419671399
    Two-Electron Energy =                 135.6852868163533401
    Total Energy =                       -154.1448966282071353

Computation Completed


Properties will be evaluated at   0.000000,   0.000000,   0.000000 [a0]

Properties computed using the SCF density matrix


 Multipole Moments:

 ------------------------------------------------------------------------------------
     Multipole            Electronic (a.u.)      Nuclear  (a.u.)        Total (a.u.)
 ------------------------------------------------------------------------------------

 L = 1.  Multiply by 2.5417464519 to convert [e a0] to [Debye]
 Dipole X            :        -85.9453757           86.6248887            0.6795131
 Dipole Y            :          7.3055284           -7.0771604            0.2283680
 Dipole Z            :          1.0466760           -0.8673919            0.1792841
 Magnitude           :                                                    0.7389403

 ------------------------------------------------------------------------------------

*** tstop() called on ivy at Thu Feb 27 16:44:46 2025
Module time:
	user time   =      27.56 seconds =       0.46 minutes
	system time =       0.66 seconds =       0.01 minutes
	total time  =         15 seconds =       0.25 minutes
Total time:
	user time   =      68.79 seconds =       1.15 minutes
	system time =       2.30 seconds =       0.04 minutes
	total time  =         37 seconds =       0.62 minutes

  //>>>>>>>>>>>>>>>>>>>>>>>>>>>>>>>>>>>//
  //            Monomer B HF           //
  //<<<<<<<<<<<<<<<<<<<<<<<<<<<<<<<<<<<//

   => Libint2 <=

    Primary   basis highest AM E, G, H:  6, 6, 3
    Auxiliary basis highest AM E, G, H:  7, 7, 4
    Onebody   basis highest AM E, G, H:  -, -, -
    Solid Harmonics ordering:            Gaussian

*** tstart() called on ivy
*** at Thu Feb 27 16:44:46 2025

   => Loading Basis Set <=

    Name: AUG-CC-PVTZ
    Role: ORBITAL
    Keyword: BASIS
    atoms 1-2, 10-11 entry C          line   239 file /home/kchung25/miniconda3/envs/p4env/share/psi4/basis/aug-cc-pvtz.gbs 
    atoms 3, 12      entry O          line   331 file /home/kchung25/miniconda3/envs/p4env/share/psi4/basis/aug-cc-pvtz.gbs 
    atoms 4-9, 13-18 entry H          line    40 file /home/kchung25/miniconda3/envs/p4env/share/psi4/basis/aug-cc-pvtz.gbs 


         ---------------------------------------------------------
                                   SCF
               by Justin Turney, Rob Parrish, Andy Simmonett
                          and Daniel G. A. Smith
                              RHF Reference
                        2 Threads,   9536 MiB Core
         ---------------------------------------------------------

  ==> Geometry <==

    Molecular point group: c1
    Full point group: C1

    Geometry (in Angstrom), charge = 0, multiplicity = 1:

       Center              X                  Y                   Z               Mass       
    ------------   -----------------  -----------------  -----------------  -----------------
      Gh(C)           2.303132000000     0.769097000000     0.598623000000    12.000000000000
      Gh(C)           1.771037000000    -0.610986000000     0.306818000000    12.000000000000
      Gh(O)           1.096965000000    -0.672425000000    -0.955992000000    15.994914619570
      Gh(H)           1.720340000000    -0.407252000000    -1.638962000000     1.007825032230
      Gh(H)           2.779410000000     0.788335000000     1.576531000000     1.007825032230
      Gh(H)           1.492158000000     1.491832000000     0.589266000000     1.007825032230
      Gh(H)           3.046547000000     1.060996000000    -0.141675000000     1.007825032230
      Gh(H)           1.016509000000    -0.890517000000     1.035624000000     1.007825032230
      Gh(H)           2.564219000000    -1.357732000000     0.335502000000     1.007825032230
         C           -2.068694000000    -0.912231000000     0.652520000000    12.000000000000
         C           -2.203838000000     0.340327000000    -0.183038000000    12.000000000000
         O           -0.992378000000     1.072278000000    -0.251265000000    15.994914619570
         H           -0.323866000000     0.486597000000    -0.635183000000     1.007825032230
         H           -3.019063000000    -1.439765000000     0.713933000000     1.007825032230
         H           -1.747026000000    -0.659308000000     1.659881000000     1.007825032230
         H           -1.336043000000    -1.585244000000     0.211494000000     1.007825032230
         H           -2.935874000000     1.012256000000     0.257752000000     1.007825032230
         H           -2.553701000000     0.083943000000    -1.185699000000     1.007825032230

  Running in c1 symmetry.

  Rotational constants: A =      0.16805  B =      0.04901  C =      0.04592 [cm^-1]
  Rotational constants: A =   5037.93923  B =   1469.29593  C =   1376.56314 [MHz]
  Nuclear repulsion =   82.079493489535267

  Charge       = 0
  Multiplicity = 1
  Electrons    = 26
  Nalpha       = 13
  Nbeta        = 13

  ==> Algorithm <==

  SCF Algorithm Type is DF.
  DIIS enabled.
  MOM disabled.
  Fractional occupation disabled.
  Guess Type is SAD.
  Energy threshold   = 1.00e-08
  Density threshold  = 1.00e-08
  Integral threshold = 1.00e-12

  ==> Primary Basis <==

  Basis Set: AUG-CC-PVTZ
    Blend: AUG-CC-PVTZ
    Number of shells: 192
    Number of basis functions: 552
    Number of Cartesian functions: 630
    Spherical Harmonics?: true
    Max angular momentum: 3

   => Loading Basis Set <=

    Name: (AUG-CC-PVTZ AUX)
    Role: JKFIT
    Keyword: DF_BASIS_SCF
    atoms 1-2, 10-11 entry C          line   162 file /home/kchung25/miniconda3/envs/p4env/share/psi4/basis/aug-cc-pvtz-jkfit.gbs 
    atoms 3, 12      entry O          line   286 file /home/kchung25/miniconda3/envs/p4env/share/psi4/basis/aug-cc-pvtz-jkfit.gbs 
    atoms 4-9, 13-18 entry H          line    70 file /home/kchung25/miniconda3/envs/p4env/share/psi4/basis/aug-cc-pvtz-jkfit.gbs 

  ==> Integral Setup <==

  ==> DiskDFJK: Density-Fitted J/K Matrices <==

    J tasked:                  Yes
    K tasked:                  Yes
    wK tasked:                  No
    OpenMP threads:              2
    Integrals threads:           2
    Memory [MiB]:             7152
    Algorithm:                Core
    Integral Cache:           LOAD
    Schwarz Cutoff:          1E-12
    Fitting Condition:       1E-10

   => Auxiliary Basis Set <=

  Basis Set: (AUG-CC-PVTZ AUX)
    Blend: AUG-CC-PVTZ-JKFIT
    Number of shells: 348
    Number of basis functions: 1176
    Number of Cartesian functions: 1446
    Spherical Harmonics?: true
    Max angular momentum: 4

  Minimum eigenvalue in the overlap matrix is 8.5744304612E-06.
  Reciprocal condition number of the overlap matrix is 4.5241620107E-07.
    Using symmetric orthogonalization.

  ==> Pre-Iterations <==

  SCF Guess: Superposition of Atomic Densities via on-the-fly atomic UHF (no occupation information).

   -------------------------
    Irrep   Nso     Nmo    
   -------------------------
     A        552     552 
   -------------------------
    Total     552     552
   -------------------------

  ==> Iterations <==

                           Total Energy        Delta E     RMS |[F,P]|

   @DF-RHF iter SAD:  -153.44957066562674   -1.53450e+02   0.00000e+00 
   @DF-RHF iter   1:  -154.00358491222411   -5.54014e-01   9.36427e-04 ADIIS/DIIS
   @DF-RHF iter   2:  -154.11534815246091   -1.11763e-01   4.94297e-04 ADIIS/DIIS
   @DF-RHF iter   3:  -154.14312719138533   -2.77790e-02   8.47199e-05 DIIS
   @DF-RHF iter   4:  -154.14471191151466   -1.58472e-03   3.26753e-05 DIIS
   @DF-RHF iter   5:  -154.14490479178713   -1.92880e-04   6.22608e-06 DIIS
   @DF-RHF iter   6:  -154.14491527894947   -1.04872e-05   1.44183e-06 DIIS
   @DF-RHF iter   7:  -154.14491603707410   -7.58125e-07   4.10469e-07 DIIS
   @DF-RHF iter   8:  -154.14491609413969   -5.70656e-08   1.30383e-07 DIIS
   @DF-RHF iter   9:  -154.14491610047227   -6.33258e-09   3.35327e-08 DIIS
   @DF-RHF iter  10:  -154.14491610091721   -4.44942e-10   6.46454e-09 DIIS
  Energy and wave function converged.


  ==> Post-Iterations <==

    Orbital Energies [Eh]
    ---------------------

    Doubly Occupied:                                                      

       1A    -20.555986     2A    -11.272335     3A    -11.216810  
       4A     -1.358229     5A     -1.014837     6A     -0.848161  
       7A     -0.686910     8A     -0.625176     9A     -0.609673  
      10A     -0.545451    11A     -0.527101    12A     -0.482959  
      13A     -0.443113  

    Virtual:                                                              

      14A      0.021185    15A      0.033199    16A      0.036176  
      17A      0.038192    18A      0.049941    19A      0.051952  
      20A      0.052501    21A      0.064173    22A      0.069987  
      23A      0.075327    24A      0.078216    25A      0.087174  
      26A      0.089949    27A      0.110719    28A      0.112526  
      29A      0.116521    30A      0.119148    31A      0.126491  
      32A      0.133679    33A      0.134368    34A      0.142042  
      35A      0.147731    36A      0.150858    37A      0.154418  
      38A      0.162092    39A      0.166301    40A      0.177143  
      41A      0.182266    42A      0.188830    43A      0.203504  
      44A      0.210052    45A      0.218828    46A      0.233734  
      47A      0.239345    48A      0.243446    49A      0.247734  
      50A      0.261666    51A      0.274484    52A      0.275515  
      53A      0.284990    54A      0.288936    55A      0.298857  
      56A      0.303500    57A      0.311687    58A      0.314541  
      59A      0.319628    60A      0.322010    61A      0.328394  
      62A      0.334394    63A      0.341109    64A      0.342899  
      65A      0.346333    66A      0.353252    67A      0.356352  
      68A      0.358479    69A      0.367717    70A      0.371002  
      71A      0.381320    72A      0.386456    73A      0.390269  
      74A      0.400701    75A      0.403931    76A      0.414276  
      77A      0.421428    78A      0.423426    79A      0.428640  
      80A      0.432562    81A      0.435713    82A      0.441143  
      83A      0.451183    84A      0.455077    85A      0.458695  
      86A      0.461676    87A      0.470361    88A      0.477405  
      89A      0.487707    90A      0.494303    91A      0.498916  
      92A      0.504008    93A      0.505345    94A      0.512709  
      95A      0.518387    96A      0.522903    97A      0.526214  
      98A      0.533690    99A      0.538918   100A      0.548345  
     101A      0.554627   102A      0.559704   103A      0.574526  
     104A      0.576396   105A      0.582641   106A      0.591903  
     107A      0.602709   108A      0.606107   109A      0.614940  
     110A      0.623821   111A      0.625480   112A      0.638653  
     113A      0.643973   114A      0.646056   115A      0.651304  
     116A      0.658873   117A      0.671571   118A      0.679134  
     119A      0.685210   120A      0.699484   121A      0.701127  
     122A      0.709196   123A      0.721642   124A      0.736311  
     125A      0.744314   126A      0.755549   127A      0.778052  
     128A      0.800440   129A      0.802667   130A      0.809519  
     131A      0.811396   132A      0.821830   133A      0.825939  
     134A      0.834254   135A      0.840662   136A      0.859752  
     137A      0.875624   138A      0.878252   139A      0.888470  
     140A      0.902528   141A      0.907084   142A      0.914886  
     143A      0.930735   144A      0.932109   145A      0.944030  
     146A      0.951683   147A      0.967058   148A      0.972344  
     149A      0.980168   150A      0.982794   151A      0.985381  
     152A      0.996271   153A      1.005723   154A      1.015108  
     155A      1.018686   156A      1.028495   157A      1.032076  
     158A      1.045235   159A      1.049014   160A      1.058624  
     161A      1.066826   162A      1.073602   163A      1.075186  
     164A      1.086245   165A      1.095001   166A      1.102205  
     167A      1.106135   168A      1.111420   169A      1.122718  
     170A      1.126984   171A      1.133191   172A      1.139995  
     173A      1.149817   174A      1.153510   175A      1.155996  
     176A      1.162686   177A      1.170153   178A      1.175239  
     179A      1.182286   180A      1.192430   181A      1.197934  
     182A      1.210140   183A      1.212174   184A      1.217331  
     185A      1.232363   186A      1.236458   187A      1.241830  
     188A      1.247547   189A      1.253280   190A      1.261068  
     191A      1.268637   192A      1.282989   193A      1.290548  
     194A      1.297194   195A      1.297928   196A      1.312102  
     197A      1.315623   198A      1.327705   199A      1.337522  
     200A      1.339743   201A      1.354095   202A      1.367963  
     203A      1.378247   204A      1.387123   205A      1.391991  
     206A      1.401219   207A      1.410450   208A      1.417751  
     209A      1.428543   210A      1.439482   211A      1.447323  
     212A      1.461584   213A      1.471111   214A      1.473204  
     215A      1.479873   216A      1.490971   217A      1.503126  
     218A      1.518045   219A      1.521933   220A      1.522894  
     221A      1.534130   222A      1.546566   223A      1.553598  
     224A      1.561933   225A      1.591915   226A      1.595414  
     227A      1.610191   228A      1.614981   229A      1.624352  
     230A      1.631337   231A      1.645943   232A      1.652647  
     233A      1.676242   234A      1.686765   235A      1.691243  
     236A      1.695202   237A      1.708144   238A      1.711466  
     239A      1.724011   240A      1.728157   241A      1.747091  
     242A      1.755353   243A      1.771368   244A      1.780261  
     245A      1.788084   246A      1.791420   247A      1.809639  
     248A      1.816142   249A      1.826399   250A      1.845414  
     251A      1.858159   252A      1.868528   253A      1.872599  
     254A      1.894014   255A      1.896991   256A      1.910309  
     257A      1.919095   258A      1.926529   259A      1.958483  
     260A      1.968942   261A      1.974084   262A      1.986128  
     263A      1.995311   264A      2.011563   265A      2.014308  
     266A      2.038947   267A      2.050507   268A      2.061722  
     269A      2.071892   270A      2.075025   271A      2.086468  
     272A      2.099338   273A      2.113317   274A      2.119816  
     275A      2.128870   276A      2.141599   277A      2.150671  
     278A      2.175526   279A      2.198498   280A      2.199690  
     281A      2.211191   282A      2.220565   283A      2.238686  
     284A      2.253648   285A      2.258752   286A      2.269570  
     287A      2.279487   288A      2.302091   289A      2.304423  
     290A      2.326482   291A      2.336017   292A      2.348125  
     293A      2.351404   294A      2.365062   295A      2.381921  
     296A      2.411269   297A      2.440856   298A      2.454022  
     299A      2.478453   300A      2.483149   301A      2.491172  
     302A      2.515152   303A      2.542032   304A      2.578834  
     305A      2.588591   306A      2.640679   307A      2.647064  
     308A      2.672969   309A      2.685538   310A      2.714024  
     311A      2.724532   312A      2.743255   313A      2.767195  
     314A      2.791387   315A      2.794184   316A      2.806808  
     317A      2.830150   318A      2.837350   319A      2.846855  
     320A      2.873985   321A      2.929280   322A      2.943340  
     323A      2.948959   324A      2.989784   325A      3.010803  
     326A      3.045904   327A      3.069117   328A      3.092315  
     329A      3.104876   330A      3.143053   331A      3.170091  
     332A      3.186402   333A      3.202345   334A      3.210793  
     335A      3.253308   336A      3.296999   337A      3.327174  
     338A      3.369947   339A      3.392449   340A      3.403749  
     341A      3.436354   342A      3.462250   343A      3.498509  
     344A      3.514937   345A      3.520587   346A      3.555981  
     347A      3.608153   348A      3.617329   349A      3.636787  
     350A      3.659822   351A      3.675898   352A      3.693809  
     353A      3.700305   354A      3.710506   355A      3.751853  
     356A      3.774106   357A      3.785511   358A      3.803647  
     359A      3.824370   360A      3.847954   361A      3.872255  
     362A      3.894915   363A      3.954948   364A      3.962113  
     365A      3.991421   366A      3.993335   367A      4.014869  
     368A      4.026369   369A      4.051800   370A      4.070695  
     371A      4.100067   372A      4.122233   373A      4.138297  
     374A      4.153214   375A      4.181324   376A      4.185312  
     377A      4.197345   378A      4.211869   379A      4.215517  
     380A      4.223860   381A      4.234884   382A      4.269756  
     383A      4.289398   384A      4.300964   385A      4.315813  
     386A      4.323896   387A      4.337196   388A      4.361003  
     389A      4.386156   390A      4.408643   391A      4.422007  
     392A      4.441600   393A      4.452557   394A      4.469204  
     395A      4.485959   396A      4.511693   397A      4.515047  
     398A      4.523550   399A      4.551640   400A      4.580855  
     401A      4.592646   402A      4.598189   403A      4.611385  
     404A      4.635277   405A      4.654251   406A      4.661844  
     407A      4.678018   408A      4.691035   409A      4.693131  
     410A      4.705523   411A      4.742014   412A      4.746436  
     413A      4.751344   414A      4.781139   415A      4.804241  
     416A      4.821616   417A      4.834788   418A      4.858426  
     419A      4.873867   420A      4.901296   421A      4.903254  
     422A      4.925176   423A      4.945925   424A      4.968542  
     425A      4.977868   426A      4.986993   427A      5.003991  
     428A      5.009236   429A      5.028595   430A      5.043212  
     431A      5.062951   432A      5.074158   433A      5.087979  
     434A      5.092331   435A      5.107297   436A      5.129931  
     437A      5.185544   438A      5.191361   439A      5.214350  
     440A      5.223020   441A      5.237654   442A      5.255809  
     443A      5.266613   444A      5.284489   445A      5.313309  
     446A      5.357020   447A      5.376773   448A      5.382512  
     449A      5.394791   450A      5.409938   451A      5.433996  
     452A      5.438881   453A      5.460818   454A      5.462204  
     455A      5.501350   456A      5.529846   457A      5.536133  
     458A      5.568684   459A      5.571504   460A      5.582481  
     461A      5.596672   462A      5.625420   463A      5.636291  
     464A      5.654831   465A      5.662570   466A      5.683761  
     467A      5.690227   468A      5.705628   469A      5.733070  
     470A      5.746135   471A      5.763351   472A      5.793634  
     473A      5.807680   474A      5.825151   475A      5.866699  
     476A      5.877409   477A      5.918784   478A      5.987678  
     479A      6.026115   480A      6.045548   481A      6.070525  
     482A      6.100245   483A      6.143991   484A      6.177213  
     485A      6.194220   486A      6.206510   487A      6.231642  
     488A      6.256462   489A      6.290845   490A      6.316008  
     491A      6.335735   492A      6.374914   493A      6.422959  
     494A      6.499449   495A      6.595601   496A      6.700961  
     497A      6.756341   498A      6.786615   499A      6.830315  
     500A      6.869641   501A      6.885064   502A      6.965033  
     503A      7.001768   504A      7.015985   505A      7.060311  
     506A      7.103271   507A      7.136756   508A      7.209299  
     509A      7.246780   510A      7.380348   511A      7.432046  
     512A      7.477730   513A      7.553510   514A      7.580624  
     515A      7.688478   516A      7.801470   517A      7.832529  
     518A      7.872721   519A      7.877966   520A      7.924796  
     521A      7.952827   522A      7.990637   523A      8.056513  
     524A      8.115999   525A      8.173709   526A      8.197904  
     527A      8.283029   528A      8.314603   529A      8.352643  
     530A      8.412160   531A      8.451992   532A      8.584364  
     533A      8.685244   534A      8.911490   535A      8.991207  
     536A     10.037604   537A     10.197164   538A     10.278262  
     539A     10.419650   540A     10.741675   541A     10.749276  
     542A     11.030293   543A     12.105464   544A     12.572600  
     545A     13.277050   546A     14.099360   547A     17.062855  
     548A     17.869213   549A     18.675755   550A     53.286711  
     551A     54.541919   552A     67.401063  

    Final Occupation by Irrep:
              A 
    DOCC [    13 ]
    NA   [    13 ]
    NB   [    13 ]

  @DF-RHF Final Energy:  -154.14491610091721

   => Energetics <=

    Nuclear Repulsion Energy =             82.0794934895352668
    One-Electron Energy =                -372.0753327308499934
    Two-Electron Energy =                 135.8509231403975264
    Total Energy =                       -154.1449161009172144

Computation Completed


Properties will be evaluated at   0.000000,   0.000000,   0.000000 [a0]

Properties computed using the SCF density matrix


 Multipole Moments:

 ------------------------------------------------------------------------------------
     Multipole            Electronic (a.u.)      Nuclear  (a.u.)        Total (a.u.)
 ------------------------------------------------------------------------------------

 L = 1.  Multiply by 2.5417464519 to convert [e a0] to [Debye]
 Dipole X            :         85.8284231          -85.9632427           -0.1348196
 Dipole Y            :         -6.4481323            5.7547433           -0.6933890
 Dipole Z            :         -3.6215248            3.4562146           -0.1653102
 Magnitude           :                                                    0.7254599

 ------------------------------------------------------------------------------------

*** tstop() called on ivy at Thu Feb 27 16:45:00 2025
Module time:
	user time   =      27.35 seconds =       0.46 minutes
	system time =       0.69 seconds =       0.01 minutes
	total time  =         14 seconds =       0.23 minutes
Total time:
	user time   =      96.14 seconds =       1.60 minutes
	system time =       2.99 seconds =       0.05 minutes
	total time  =         51 seconds =       0.85 minutes
  Constructing Basis Sets for SAPT...

   => Loading Basis Set <=

    Name: (AUG-CC-PVTZ AUX)
    Role: RIFIT
    Keyword: DF_BASIS_SAPT
    atoms 1-2, 10-11 entry C          line   148 file /home/kchung25/miniconda3/envs/p4env/share/psi4/basis/aug-cc-pvtz-ri.gbs 
    atoms 3, 12      entry O          line   264 file /home/kchung25/miniconda3/envs/p4env/share/psi4/basis/aug-cc-pvtz-ri.gbs 
    atoms 4-9, 13-18 entry H          line    30 file /home/kchung25/miniconda3/envs/p4env/share/psi4/basis/aug-cc-pvtz-ri.gbs 

   => Loading Basis Set <=

    Name: (AUG-CC-PVTZ AUX)
    Role: JKFIT
    Keyword: DF_BASIS_ELST
    atoms 1-2, 10-11 entry C          line   162 file /home/kchung25/miniconda3/envs/p4env/share/psi4/basis/aug-cc-pvtz-jkfit.gbs 
    atoms 3, 12      entry O          line   286 file /home/kchung25/miniconda3/envs/p4env/share/psi4/basis/aug-cc-pvtz-jkfit.gbs 
    atoms 4-9, 13-18 entry H          line    70 file /home/kchung25/miniconda3/envs/p4env/share/psi4/basis/aug-cc-pvtz-jkfit.gbs 


  //>>>>>>>>>>>>>>>>>>>>>>>>>>>>>>>>>>>//
  //               SAPT2+              //
  //<<<<<<<<<<<<<<<<<<<<<<<<<<<<<<<<<<<//


*** tstart() called on ivy
*** at Thu Feb 27 16:45:00 2025

        SAPT2+  
    Ed Hohenstein
     6 June 2009

      Orbital Information
  --------------------------
    NSO        =       552
    NMO        =       552
    NRI        =      1188
    NOCC A     =        13
    NOCC B     =        13
    FOCC A     =         0
    FOCC B     =         0
    NVIR A     =       539
    NVIR B     =       539

    Estimated memory usage: 3939.5 MB

    Natural Orbital Cutoff:   1.000E-06
    Disp(T3) Truncation:            Yes
    CCD (vv|vv) Truncation:         Yes
    MBPT T2 Truncation:             Yes

    Monomer A: 304 virtual orbitals dropped
    Monomer B: 306 virtual orbitals dropped

    Elst10,r            =    -0.018220998738 [Eh]
    Exch10 (S^2)        =     0.020237933041 [Eh]
    Exch10              =     0.020420844242 [Eh]
    Ind20,r (A<-B)      =    -0.005264025599 [Eh]
    Ind20,r (B<-A)      =    -0.003805224058 [Eh]
    Ind20,r             =    -0.009069249657 [Eh]
    Exch-Ind20,r (A<-B) =     0.002742248640 [Eh]
    Exch-Ind20,r (B<-A) =     0.002970058615 [Eh]
    Exch-Ind20,r        =     0.005712307255 [Eh]
    Disp20              =    -0.010756990886 [Eh]
    Disp20 (NO)         =    -0.009507209634 [Eh]
    Exch-Disp20         =     0.001693360195 [Eh]
    Elst12,r            =    -0.000760279580 [Eh]
    Exch11              =     0.000209916754 [Eh]
    Exch12              =     0.003268347399 [Eh]
    Ind22               =    -0.001663617923 [Eh]
    Disp21              =     0.000757357161 [Eh]
    Disp22 (SDQ)        =    -0.000106778483 [Eh]

    (i =   1 of  13)         57 seconds
    (i =   2 of  13)        115 seconds
    (i =   3 of  13)        174 seconds
    (i =   4 of  13)        232 seconds
    (i =   5 of  13)        290 seconds
    (i =   6 of  13)        348 seconds
    (i =   7 of  13)        406 seconds
    (i =   8 of  13)        464 seconds
    (i =   9 of  13)        522 seconds
    (i =  10 of  13)        580 seconds
    (i =  11 of  13)        637 seconds
    (i =  12 of  13)        694 seconds
    (i =  13 of  13)        750 seconds

    Disp220 (T)         =    -0.000798104896 [Eh]

    (i =   1 of  13)         56 seconds
    (i =   2 of  13)        111 seconds
    (i =   3 of  13)        166 seconds
    (i =   4 of  13)        222 seconds
    (i =   5 of  13)        277 seconds
    (i =   6 of  13)        332 seconds
    (i =   7 of  13)        387 seconds
    (i =   8 of  13)        443 seconds
    (i =   9 of  13)        498 seconds
    (i =  10 of  13)        553 seconds
    (i =  11 of  13)        608 seconds
    (i =  12 of  13)        663 seconds
    (i =  13 of  13)        718 seconds

    Disp202 (T)         =    -0.000922361346 [Eh]

    Disp22 (T)          =    -0.001720466242 [Eh]

    Est. Disp220 (T)    =    -0.000903020699 [Eh]
    Est. Disp202 (T)    =    -0.001043611425 [Eh]

    Est. Disp22 (T)     =    -0.001946632124 [Eh]

    SAPT Results 
  --------------------------------------------------------------------------------------------------------
    Electrostatics                -18.98127832 [mEh]     -11.91093197 [kcal/mol]     -49.83533936 [kJ/mol]
      Elst10,r                    -18.22099874 [mEh]     -11.43384933 [kcal/mol]     -47.83922560 [kJ/mol]
      Elst12,r                     -0.76027958 [mEh]      -0.47708264 [kcal/mol]      -1.99611376 [kJ/mol]

    Exchange                       23.89910839 [mEh]      14.99691693 [kcal/mol]      62.74710045 [kJ/mol]
      Exch10                       20.42084424 [mEh]      12.81427322 [kcal/mol]      53.61491917 [kJ/mol]
      Exch10(S^2)                  20.23793304 [mEh]      12.69949471 [kcal/mol]      53.13468588 [kJ/mol]
      Exch11(S^2)                   0.20991675 [mEh]       0.13172475 [kcal/mol]       0.55113636 [kJ/mol]
      Exch12(S^2)                   3.26834740 [mEh]       2.05091896 [kcal/mol]       8.58104491 [kJ/mol]

    Induction                      -6.49385932 [mEh]      -4.07495825 [kcal/mol]     -17.04962530 [kJ/mol]
      Ind20,r                      -9.06924966 [mEh]      -5.69104008 [kcal/mol]     -23.81131169 [kJ/mol]
      Ind22                        -1.66361792 [mEh]      -1.04393601 [kcal/mol]      -4.36782826 [kJ/mol]
      Exch-Ind20,r                  5.71230725 [mEh]       3.58452692 [kcal/mol]      14.99766063 [kJ/mol]
      Exch-Ind22                    1.04783715 [mEh]       0.65752774 [kcal/mol]       2.75109606 [kJ/mol]
      delta HF,r (2)               -2.52113615 [mEh]      -1.58203682 [kcal/mol]      -6.61924205 [kJ/mol]

    Dispersion                    -10.35968414 [mEh]      -6.50079994 [kcal/mol]     -27.19934696 [kJ/mol]
      Disp20                      -10.75699089 [mEh]      -6.75011369 [kcal/mol]     -28.24247568 [kJ/mol]
      Disp21                        0.75735716 [mEh]       0.47524879 [kcal/mol]       1.98844095 [kJ/mol]
      Disp22 (SDQ)                 -0.10677848 [mEh]      -0.06700451 [kcal/mol]      -0.28034687 [kJ/mol]
      Disp22 (T)                   -1.72046624 [mEh]      -1.07960887 [kcal/mol]      -4.51708350 [kJ/mol]
      Est. Disp22 (T)              -1.94663212 [mEh]      -1.22153010 [kcal/mol]      -5.11088194 [kJ/mol]
      Exch-Disp20                   1.69336019 [mEh]       1.06259956 [kcal/mol]       4.44591658 [kJ/mol]

  Total HF                         -3.67823305 [mEh]      -2.30812608 [kcal/mol]      -9.65719953 [kJ/mol]
  Total SAPT0                     -12.74186374 [mEh]      -7.99564021 [kcal/mol]     -33.45375863 [kJ/mol]
  Total SAPT2                     -10.63965994 [mEh]      -6.67648741 [kcal/mol]     -27.93442332 [kJ/mol]
  Total SAPT2+                    -11.93571338 [mEh]      -7.48977322 [kcal/mol]     -31.33721117 [kJ/mol]

  Special recipe for scaled SAPT0 (see Manual):
    Electrostatics sSAPT0         -18.22099874 [mEh]     -11.43384933 [kcal/mol]     -47.83922560 [kJ/mol]
    Exchange sSAPT0                20.42084424 [mEh]      12.81427322 [kcal/mol]      53.61491917 [kJ/mol]
    Induction sSAPT0               -5.72179034 [mEh]      -3.59047765 [kcal/mol]     -15.02255847 [kJ/mol]
    Dispersion sSAPT0              -9.01730051 [mEh]      -5.65844150 [kcal/mol]     -23.67491923 [kJ/mol]
  Total sSAPT0                    -12.53924535 [mEh]      -7.86849525 [kcal/mol]     -32.92178412 [kJ/mol]
  --------------------------------------------------------------------------------------------------------

*** tstop() called on ivy at Thu Feb 27 17:15:32 2025
Module time:
	user time   =    3341.12 seconds =      55.69 minutes
	system time =      49.57 seconds =       0.83 minutes
	total time  =       1832 seconds =      30.53 minutes
Total time:
	user time   =    3437.33 seconds =      57.29 minutes
	system time =      52.56 seconds =       0.88 minutes
	total time  =       1883 seconds =      31.38 minutes

    Psi4 stopped on: Thursday, 27 February 2025 05:15PM
    Psi4 wall time for execution: 0:31:23.85

*** Psi4 exiting successfully. Buy a developer a beer!
