
    -----------------------------------------------------------------------
          Psi4: An Open-Source Ab Initio Electronic Structure Package
                               Psi4 1.9.1 release

                         Git: Rev {} zzzzzzz 


    D. G. A. Smith, L. A. Burns, A. C. Simmonett, R. M. Parrish,
    M. C. Schieber, R. Galvelis, P. Kraus, H. Kruse, R. Di Remigio,
    A. Alenaizan, A. M. James, S. Lehtola, J. P. Misiewicz, M. Scheurer,
    R. A. Shaw, J. B. Schriber, Y. Xie, Z. L. Glick, D. A. Sirianni,
    J. S. O'Brien, J. M. Waldrop, A. Kumar, E. G. Hohenstein,
    B. P. Pritchard, B. R. Brooks, H. F. Schaefer III, A. Yu. Sokolov,
    K. Patkowski, A. E. DePrince III, U. Bozkaya, R. A. King,
    F. A. Evangelista, J. M. Turney, T. D. Crawford, C. D. Sherrill,
    J. Chem. Phys. 152(18) 184108 (2020). https://doi.org/10.1063/5.0006002

                            Additional Code Authors
    E. T. Seidl, C. L. Janssen, E. F. Valeev, M. L. Leininger,
    J. F. Gonthier, R. M. Richard, H. R. McAlexander, M. Saitow, X. Wang,
    P. Verma, M. H. Lechner, A. Jiang, S. Behnle, A. G. Heide,
    M. F. Herbst, and D. L. Poole

             Previous Authors, Complete List of Code Contributors,
                       and Citations for Specific Modules
    https://github.com/psi4/psi4/blob/master/codemeta.json
    https://github.com/psi4/psi4/graphs/contributors
    http://psicode.org/psi4manual/master/introduction.html#citing-psifour

    -----------------------------------------------------------------------


    Psi4 started on: Thursday, 27 February 2025 03:07PM

    Process ID: 4006
    Host:       ivy
    PSIDATADIR: /home/kchung25/miniconda3/envs/p4env/share/psi4
    Memory:     500.0 MiB
    Threads:    2
    
  ==> Input File <==

--------------------------------------------------------------------------
MEMORY 10 GB

molecule dimer {
0 1
C    2.355352   0.003156   0.000061
C    0.937302  -0.501955  -0.000075
O    0.072422   0.620392  -0.000014
H   -0.838375   0.302130   0.000003
H    3.056621  -0.827988   0.000404
H    2.535016   0.612763   0.881313
H    2.535301   0.612274  -0.881468
H    0.761942  -1.121834   0.881890
H    0.762030  -1.121711  -0.882147
--
0 1
O   -2.563531  -0.134367  -0.000005
H   -3.014237   0.242213  -0.759526
H   -3.014087   0.241425   0.759996

units ang
no_reorient
no_com
symmetry c1
}

set {
basis        aug-cc-pVTZ
scf_type     df
}

energy("sapt2+")
--------------------------------------------------------------------------

  Memory set to   9.313 GiB by Python driver.

Scratch directory: /tmp/
   => Loading Basis Set <=

    Name: AUG-CC-PVTZ
    Role: ORBITAL
    Keyword: BASIS
    atoms 1-2        entry C          line   239 file /home/kchung25/miniconda3/envs/p4env/share/psi4/basis/aug-cc-pvtz.gbs 
    atoms 3, 10      entry O          line   331 file /home/kchung25/miniconda3/envs/p4env/share/psi4/basis/aug-cc-pvtz.gbs 
    atoms 4-9, 11-12 entry H          line    40 file /home/kchung25/miniconda3/envs/p4env/share/psi4/basis/aug-cc-pvtz.gbs 

   => Loading Basis Set <=

    Name: AUG-CC-PVTZ
    Role: ORBITAL
    Keyword: BASIS
    atoms 1-2        entry C          line   239 file /home/kchung25/miniconda3/envs/p4env/share/psi4/basis/aug-cc-pvtz.gbs 
    atoms 3, 10      entry O          line   331 file /home/kchung25/miniconda3/envs/p4env/share/psi4/basis/aug-cc-pvtz.gbs 
    atoms 4-9, 11-12 entry H          line    40 file /home/kchung25/miniconda3/envs/p4env/share/psi4/basis/aug-cc-pvtz.gbs 


  //>>>>>>>>>>>>>>>>>>>>>>>>>>>>>>>>>>>//
  //              Dimer HF             //
  //<<<<<<<<<<<<<<<<<<<<<<<<<<<<<<<<<<<//

   => Libint2 <=

    Primary   basis highest AM E, G, H:  6, 6, 3
    Auxiliary basis highest AM E, G, H:  7, 7, 4
    Onebody   basis highest AM E, G, H:  -, -, -
    Solid Harmonics ordering:            Gaussian

*** tstart() called on ivy
*** at Thu Feb 27 15:07:41 2025

   => Loading Basis Set <=

    Name: AUG-CC-PVTZ
    Role: ORBITAL
    Keyword: BASIS
    atoms 1-2        entry C          line   239 file /home/kchung25/miniconda3/envs/p4env/share/psi4/basis/aug-cc-pvtz.gbs 
    atoms 3, 10      entry O          line   331 file /home/kchung25/miniconda3/envs/p4env/share/psi4/basis/aug-cc-pvtz.gbs 
    atoms 4-9, 11-12 entry H          line    40 file /home/kchung25/miniconda3/envs/p4env/share/psi4/basis/aug-cc-pvtz.gbs 


         ---------------------------------------------------------
                                   SCF
               by Justin Turney, Rob Parrish, Andy Simmonett
                          and Daniel G. A. Smith
                              RHF Reference
                        2 Threads,   9536 MiB Core
         ---------------------------------------------------------

  ==> Geometry <==

    Molecular point group: c1
    Full point group: C1

    Geometry (in Angstrom), charge = 0, multiplicity = 1:

       Center              X                  Y                   Z               Mass       
    ------------   -----------------  -----------------  -----------------  -----------------
         C            2.355352000000     0.003156000000     0.000061000000    12.000000000000
         C            0.937302000000    -0.501955000000    -0.000075000000    12.000000000000
         O            0.072422000000     0.620392000000    -0.000014000000    15.994914619570
         H           -0.838375000000     0.302130000000     0.000003000000     1.007825032230
         H            3.056621000000    -0.827988000000     0.000404000000     1.007825032230
         H            2.535016000000     0.612763000000     0.881313000000     1.007825032230
         H            2.535301000000     0.612274000000    -0.881468000000     1.007825032230
         H            0.761942000000    -1.121834000000     0.881890000000     1.007825032230
         H            0.762030000000    -1.121711000000    -0.882147000000     1.007825032230
         O           -2.563531000000    -0.134367000000    -0.000005000000    15.994914619570
         H           -3.014237000000     0.242213000000    -0.759526000000     1.007825032230
         H           -3.014087000000     0.241425000000     0.759996000000     1.007825032230

  Running in c1 symmetry.

  Rotational constants: A =      0.93984  B =      0.07355  C =      0.07067 [cm^-1]
  Rotational constants: A =  28175.68946  B =   2205.02380  C =   2118.66837 [MHz]
  Nuclear repulsion =  130.100908780408531

  Charge       = 0
  Multiplicity = 1
  Electrons    = 36
  Nalpha       = 18
  Nbeta        = 18

  ==> Algorithm <==

  SCF Algorithm Type is DF.
  DIIS enabled.
  MOM disabled.
  Fractional occupation disabled.
  Guess Type is SAD.
  Energy threshold   = 1.00e-08
  Density threshold  = 1.00e-08
  Integral threshold = 1.00e-12

  ==> Primary Basis <==

  Basis Set: AUG-CC-PVTZ
    Blend: AUG-CC-PVTZ
    Number of shells: 128
    Number of basis functions: 368
    Number of Cartesian functions: 420
    Spherical Harmonics?: true
    Max angular momentum: 3

   => Loading Basis Set <=

    Name: (AUG-CC-PVTZ AUX)
    Role: JKFIT
    Keyword: DF_BASIS_SCF
    atoms 1-2        entry C          line   162 file /home/kchung25/miniconda3/envs/p4env/share/psi4/basis/aug-cc-pvtz-jkfit.gbs 
    atoms 3, 10      entry O          line   286 file /home/kchung25/miniconda3/envs/p4env/share/psi4/basis/aug-cc-pvtz-jkfit.gbs 
    atoms 4-9, 11-12 entry H          line    70 file /home/kchung25/miniconda3/envs/p4env/share/psi4/basis/aug-cc-pvtz-jkfit.gbs 

  ==> Integral Setup <==

  ==> DiskDFJK: Density-Fitted J/K Matrices <==

    J tasked:                  Yes
    K tasked:                  Yes
    wK tasked:                  No
    OpenMP threads:              2
    Integrals threads:           2
    Memory [MiB]:             7152
    Algorithm:                Core
    Integral Cache:           SAVE
    Schwarz Cutoff:          1E-12
    Fitting Condition:       1E-10

   => Auxiliary Basis Set <=

  Basis Set: (AUG-CC-PVTZ AUX)
    Blend: AUG-CC-PVTZ-JKFIT
    Number of shells: 232
    Number of basis functions: 784
    Number of Cartesian functions: 964
    Spherical Harmonics?: true
    Max angular momentum: 4

  Minimum eigenvalue in the overlap matrix is 1.5459186830E-05.
  Reciprocal condition number of the overlap matrix is 1.0424649468E-06.
    Using symmetric orthogonalization.

  ==> Pre-Iterations <==

  SCF Guess: Superposition of Atomic Densities via on-the-fly atomic UHF (no occupation information).

   -------------------------
    Irrep   Nso     Nmo    
   -------------------------
     A        368     368 
   -------------------------
    Total     368     368
   -------------------------

  ==> Iterations <==

                           Total Energy        Delta E     RMS |[F,P]|

   @DF-RHF iter SAD:  -229.05325937688468   -2.29053e+02   0.00000e+00 
   @DF-RHF iter   1:  -229.99383979742566   -9.40580e-01   1.84275e-03 ADIIS/DIIS
   @DF-RHF iter   2:  -230.15530320784936   -1.61463e-01   1.05925e-03 ADIIS/DIIS
   @DF-RHF iter   3:  -230.20733128306162   -5.20281e-02   1.39720e-04 ADIIS/DIIS
   @DF-RHF iter   4:  -230.20937096024304   -2.03968e-03   4.83758e-05 DIIS
   @DF-RHF iter   5:  -230.20956966661109   -1.98706e-04   1.10951e-05 DIIS
   @DF-RHF iter   6:  -230.20958405349290   -1.43869e-05   2.98975e-06 DIIS
   @DF-RHF iter   7:  -230.20958511319665   -1.05970e-06   1.14178e-06 DIIS
   @DF-RHF iter   8:  -230.20958523213508   -1.18938e-07   3.16363e-07 DIIS
   @DF-RHF iter   9:  -230.20958524582684   -1.36918e-08   7.81463e-08 DIIS
   @DF-RHF iter  10:  -230.20958524660989   -7.83047e-10   2.37721e-08 DIIS
   @DF-RHF iter  11:  -230.20958524668012   -7.02300e-11   4.52483e-09 DIIS
  Energy and wave function converged.


  ==> Post-Iterations <==

    Orbital Energies [Eh]
    ---------------------

    Doubly Occupied:                                                      

       1A    -20.595990     2A    -20.520083     3A    -11.252615  
       4A    -11.195458     5A     -1.385901     6A     -1.328462  
       7A     -0.997613     8A     -0.816428     9A     -0.746698  
      10A     -0.690113    11A     -0.627569    12A     -0.614592  
      13A     -0.551079    14A     -0.545737    15A     -0.512511  
      16A     -0.508160    17A     -0.463645    18A     -0.416602  

    Virtual:                                                              

      19A      0.021874    20A      0.040674    21A      0.041182  
      22A      0.048051    23A      0.056721    24A      0.059544  
      25A      0.072828    26A      0.075568    27A      0.112568  
      28A      0.120878    29A      0.125620    30A      0.137163  
      31A      0.138305    32A      0.149156    33A      0.150527  
      34A      0.155428    35A      0.174378    36A      0.176732  
      37A      0.201637    38A      0.211216    39A      0.214093  
      40A      0.229192    41A      0.229855    42A      0.236711  
      43A      0.244283    44A      0.269566    45A      0.271182  
      46A      0.279569    47A      0.294574    48A      0.303628  
      49A      0.307260    50A      0.307652    51A      0.342571  
      52A      0.343281    53A      0.354310    54A      0.358438  
      55A      0.364513    56A      0.370563    57A      0.376691  
      58A      0.385411    59A      0.394926    60A      0.406675  
      61A      0.411254    62A      0.417270    63A      0.420697  
      64A      0.432611    65A      0.440897    66A      0.444951  
      67A      0.449172    68A      0.458160    69A      0.465010  
      70A      0.466153    71A      0.471112    72A      0.489623  
      73A      0.496798    74A      0.499471    75A      0.507546  
      76A      0.513578    77A      0.521211    78A      0.533219  
      79A      0.546199    80A      0.558790    81A      0.565301  
      82A      0.582559    83A      0.609872    84A      0.620026  
      85A      0.628960    86A      0.636345    87A      0.643806  
      88A      0.699122    89A      0.731927    90A      0.748402  
      91A      0.748693    92A      0.757993    93A      0.785714  
      94A      0.804997    95A      0.812775    96A      0.832204  
      97A      0.833206    98A      0.836593    99A      0.843762  
     100A      0.856255   101A      0.861820   102A      0.871846  
     103A      0.880215   104A      0.892303   105A      0.896819  
     106A      0.913294   107A      0.923867   108A      0.931942  
     109A      0.940007   110A      0.941870   111A      0.955992  
     112A      0.956902   113A      0.967084   114A      0.995832  
     115A      0.996221   116A      1.007971   117A      1.008393  
     118A      1.024005   119A      1.030992   120A      1.036413  
     121A      1.051383   122A      1.055497   123A      1.060242  
     124A      1.085698   125A      1.090684   126A      1.104838  
     127A      1.114754   128A      1.114870   129A      1.140070  
     130A      1.141335   131A      1.155969   132A      1.159041  
     133A      1.170686   134A      1.182861   135A      1.196127  
     136A      1.203631   137A      1.205727   138A      1.228334  
     139A      1.231908   140A      1.264208   141A      1.276427  
     142A      1.281868   143A      1.304701   144A      1.309144  
     145A      1.309783   146A      1.322624   147A      1.361133  
     148A      1.376270   149A      1.399074   150A      1.401051  
     151A      1.413910   152A      1.430211   153A      1.435284  
     154A      1.451775   155A      1.497584   156A      1.505293  
     157A      1.509336   158A      1.563490   159A      1.571040  
     160A      1.580633   161A      1.600578   162A      1.626555  
     163A      1.632644   164A      1.642404   165A      1.654820  
     166A      1.685369   167A      1.691103   168A      1.691467  
     169A      1.703652   170A      1.721159   171A      1.725267  
     172A      1.744234   173A      1.750980   174A      1.776357  
     175A      1.780400   176A      1.811585   177A      1.831711  
     178A      1.841170   179A      1.855744   180A      1.857882  
     181A      1.862662   182A      1.884239   183A      1.923039  
     184A      1.931423   185A      1.959762   186A      1.987317  
     187A      1.991398   188A      2.030630   189A      2.038859  
     190A      2.086023   191A      2.116101   192A      2.118689  
     193A      2.140541   194A      2.162044   195A      2.182251  
     196A      2.209017   197A      2.244191   198A      2.248264  
     199A      2.278249   200A      2.296884   201A      2.316440  
     202A      2.352622   203A      2.358217   204A      2.397044  
     205A      2.428847   206A      2.431830   207A      2.451557  
     208A      2.487421   209A      2.542891   210A      2.555283  
     211A      2.590725   212A      2.596417   213A      2.612541  
     214A      2.666342   215A      2.674661   216A      2.722437  
     217A      2.724048   218A      2.784082   219A      2.797929  
     220A      2.856869   221A      2.861113   222A      2.906772  
     223A      2.951929   224A      2.953317   225A      2.975654  
     226A      3.000289   227A      3.006125   228A      3.066362  
     229A      3.133549   230A      3.163612   231A      3.208577  
     232A      3.249210   233A      3.318336   234A      3.384759  
     235A      3.433266   236A      3.440950   237A      3.469559  
     238A      3.540553   239A      3.598536   240A      3.604699  
     241A      3.647642   242A      3.667859   243A      3.677219  
     244A      3.714490   245A      3.728536   246A      3.754841  
     247A      3.777282   248A      3.810445   249A      3.833243  
     250A      3.837765   251A      3.865071   252A      3.910193  
     253A      3.948469   254A      3.983341   255A      3.987805  
     256A      4.004239   257A      4.017700   258A      4.075474  
     259A      4.097198   260A      4.109358   261A      4.124154  
     262A      4.161919   263A      4.178798   264A      4.200812  
     265A      4.220008   266A      4.233716   267A      4.234335  
     268A      4.237558   269A      4.278209   270A      4.304063  
     271A      4.344892   272A      4.369617   273A      4.381764  
     274A      4.409949   275A      4.456159   276A      4.478819  
     277A      4.482510   278A      4.523953   279A      4.524342  
     280A      4.569878   281A      4.570644   282A      4.593584  
     283A      4.637731   284A      4.638647   285A      4.676632  
     286A      4.709206   287A      4.718015   288A      4.757429  
     289A      4.773389   290A      4.805920   291A      4.829818  
     292A      4.842889   293A      4.862765   294A      4.874368  
     295A      4.908743   296A      4.947596   297A      4.949296  
     298A      5.003796   299A      5.071392   300A      5.082544  
     301A      5.139406   302A      5.148365   303A      5.149781  
     304A      5.179253   305A      5.191653   306A      5.222330  
     307A      5.227851   308A      5.289393   309A      5.316172  
     310A      5.318738   311A      5.348497   312A      5.368743  
     313A      5.405300   314A      5.450657   315A      5.455220  
     316A      5.499872   317A      5.555778   318A      5.566760  
     319A      5.635450   320A      5.695499   321A      5.702085  
     322A      5.760129   323A      5.787562   324A      5.817012  
     325A      5.875432   326A      5.887496   327A      6.020224  
     328A      6.051361   329A      6.069858   330A      6.151202  
     331A      6.224391   332A      6.254755   333A      6.339867  
     334A      6.380566   335A      6.405385   336A      6.538632  
     337A      6.697710   338A      6.724371   339A      6.791616  
     340A      6.842702   341A      6.851855   342A      6.968362  
     343A      6.997482   344A      7.024731   345A      7.146151  
     346A      7.206657   347A      7.285132   348A      7.313050  
     349A      7.376535   350A      7.377864   351A      7.436704  
     352A      7.461632   353A      7.531503   354A      7.630989  
     355A      7.647539   356A      7.653768   357A      7.737084  
     358A      7.901639   359A      7.965462   360A      8.003920  
     361A      8.095092   362A      8.302367   363A      8.777729  
     364A      8.917752   365A     15.987094   366A     17.035039  
     367A     18.203315   368A     18.486246  

    Final Occupation by Irrep:
              A 
    DOCC [    18 ]
    NA   [    18 ]
    NB   [    18 ]

  @DF-RHF Final Energy:  -230.20958524668012

   => Energetics <=

    Nuclear Repulsion Energy =            130.1009087804085311
    One-Electron Energy =                -573.0824732080628792
    Two-Electron Energy =                 212.7719791809742276
    Total Energy =                       -230.2095852466801205

Computation Completed


Properties will be evaluated at   0.000000,   0.000000,   0.000000 [a0]

Properties computed using the SCF density matrix


 Multipole Moments:

 ------------------------------------------------------------------------------------
     Multipole            Electronic (a.u.)      Nuclear  (a.u.)        Total (a.u.)
 ------------------------------------------------------------------------------------

 L = 1.  Multiply by 2.5417464519 to convert [e a0] to [Debye]
 Dipole X            :         -6.0589795            4.9345719           -1.1244076
 Dipole Y            :          0.1450143           -0.3124133           -0.1673990
 Dipole Z            :         -0.0001225            0.0004327            0.0003102
 Magnitude           :                                                    1.1368003

 ------------------------------------------------------------------------------------

*** tstop() called on ivy at Thu Feb 27 15:07:46 2025
Module time:
	user time   =       8.39 seconds =       0.14 minutes
	system time =       0.52 seconds =       0.01 minutes
	total time  =          5 seconds =       0.08 minutes
Total time:
	user time   =       8.39 seconds =       0.14 minutes
	system time =       0.52 seconds =       0.01 minutes
	total time  =          5 seconds =       0.08 minutes

  //>>>>>>>>>>>>>>>>>>>>>>>>>>>>>>>>>>>//
  //            Monomer A HF           //
  //<<<<<<<<<<<<<<<<<<<<<<<<<<<<<<<<<<<//

   => Libint2 <=

    Primary   basis highest AM E, G, H:  6, 6, 3
    Auxiliary basis highest AM E, G, H:  7, 7, 4
    Onebody   basis highest AM E, G, H:  -, -, -
    Solid Harmonics ordering:            Gaussian

*** tstart() called on ivy
*** at Thu Feb 27 15:07:46 2025

   => Loading Basis Set <=

    Name: AUG-CC-PVTZ
    Role: ORBITAL
    Keyword: BASIS
    atoms 1-2        entry C          line   239 file /home/kchung25/miniconda3/envs/p4env/share/psi4/basis/aug-cc-pvtz.gbs 
    atoms 3, 10      entry O          line   331 file /home/kchung25/miniconda3/envs/p4env/share/psi4/basis/aug-cc-pvtz.gbs 
    atoms 4-9, 11-12 entry H          line    40 file /home/kchung25/miniconda3/envs/p4env/share/psi4/basis/aug-cc-pvtz.gbs 


         ---------------------------------------------------------
                                   SCF
               by Justin Turney, Rob Parrish, Andy Simmonett
                          and Daniel G. A. Smith
                              RHF Reference
                        2 Threads,   9536 MiB Core
         ---------------------------------------------------------

  ==> Geometry <==

    Molecular point group: c1
    Full point group: C1

    Geometry (in Angstrom), charge = 0, multiplicity = 1:

       Center              X                  Y                   Z               Mass       
    ------------   -----------------  -----------------  -----------------  -----------------
         C            2.355352000000     0.003156000000     0.000061000000    12.000000000000
         C            0.937302000000    -0.501955000000    -0.000075000000    12.000000000000
         O            0.072422000000     0.620392000000    -0.000014000000    15.994914619570
         H           -0.838375000000     0.302130000000     0.000003000000     1.007825032230
         H            3.056621000000    -0.827988000000     0.000404000000     1.007825032230
         H            2.535016000000     0.612763000000     0.881313000000     1.007825032230
         H            2.535301000000     0.612274000000    -0.881468000000     1.007825032230
         H            0.761942000000    -1.121834000000     0.881890000000     1.007825032230
         H            0.762030000000    -1.121711000000    -0.882147000000     1.007825032230
      Gh(O)          -2.563531000000    -0.134367000000    -0.000005000000    15.994914619570
      Gh(H)          -3.014237000000     0.242213000000    -0.759526000000     1.007825032230
      Gh(H)          -3.014087000000     0.241425000000     0.759996000000     1.007825032230

  Running in c1 symmetry.

  Rotational constants: A =      0.93984  B =      0.07355  C =      0.07067 [cm^-1]
  Rotational constants: A =  28175.68946  B =   2205.02380  C =   2118.66837 [MHz]
  Nuclear repulsion =   82.216640344197913

  Charge       = 0
  Multiplicity = 1
  Electrons    = 26
  Nalpha       = 13
  Nbeta        = 13

  ==> Algorithm <==

  SCF Algorithm Type is DF.
  DIIS enabled.
  MOM disabled.
  Fractional occupation disabled.
  Guess Type is SAD.
  Energy threshold   = 1.00e-08
  Density threshold  = 1.00e-08
  Integral threshold = 1.00e-12

  ==> Primary Basis <==

  Basis Set: AUG-CC-PVTZ
    Blend: AUG-CC-PVTZ
    Number of shells: 128
    Number of basis functions: 368
    Number of Cartesian functions: 420
    Spherical Harmonics?: true
    Max angular momentum: 3

   => Loading Basis Set <=

    Name: (AUG-CC-PVTZ AUX)
    Role: JKFIT
    Keyword: DF_BASIS_SCF
    atoms 1-2        entry C          line   162 file /home/kchung25/miniconda3/envs/p4env/share/psi4/basis/aug-cc-pvtz-jkfit.gbs 
    atoms 3, 10      entry O          line   286 file /home/kchung25/miniconda3/envs/p4env/share/psi4/basis/aug-cc-pvtz-jkfit.gbs 
    atoms 4-9, 11-12 entry H          line    70 file /home/kchung25/miniconda3/envs/p4env/share/psi4/basis/aug-cc-pvtz-jkfit.gbs 

  ==> Integral Setup <==

  ==> DiskDFJK: Density-Fitted J/K Matrices <==

    J tasked:                  Yes
    K tasked:                  Yes
    wK tasked:                  No
    OpenMP threads:              2
    Integrals threads:           2
    Memory [MiB]:             7152
    Algorithm:                Core
    Integral Cache:           LOAD
    Schwarz Cutoff:          1E-12
    Fitting Condition:       1E-10

   => Auxiliary Basis Set <=

  Basis Set: (AUG-CC-PVTZ AUX)
    Blend: AUG-CC-PVTZ-JKFIT
    Number of shells: 232
    Number of basis functions: 784
    Number of Cartesian functions: 964
    Spherical Harmonics?: true
    Max angular momentum: 4

  Minimum eigenvalue in the overlap matrix is 1.5459186830E-05.
  Reciprocal condition number of the overlap matrix is 1.0424649468E-06.
    Using symmetric orthogonalization.

  ==> Pre-Iterations <==

  SCF Guess: Superposition of Atomic Densities via on-the-fly atomic UHF (no occupation information).

   -------------------------
    Irrep   Nso     Nmo    
   -------------------------
     A        368     368 
   -------------------------
    Total     368     368
   -------------------------

  ==> Iterations <==

                           Total Energy        Delta E     RMS |[F,P]|

   @DF-RHF iter SAD:  -153.44778705354656   -1.53448e+02   0.00000e+00 
   @DF-RHF iter   1:  -153.99889989114072   -5.51113e-01   1.43993e-03 ADIIS/DIIS
   @DF-RHF iter   2:  -154.11105293979182   -1.12153e-01   7.99943e-04 ADIIS/DIIS
   @DF-RHF iter   3:  -154.14379157626584   -3.27386e-02   1.28157e-04 ADIIS/DIIS
   @DF-RHF iter   4:  -154.14539543823770   -1.60386e-03   4.92356e-05 DIIS
   @DF-RHF iter   5:  -154.14558486120325   -1.89423e-04   8.65233e-06 DIIS
   @DF-RHF iter   6:  -154.14559457451023   -9.71331e-06   1.92717e-06 DIIS
   @DF-RHF iter   7:  -154.14559514243530   -5.67925e-07   5.92166e-07 DIIS
   @DF-RHF iter   8:  -154.14559518711854   -4.46832e-08   1.60670e-07 DIIS
   @DF-RHF iter   9:  -154.14559519143972   -4.32118e-09   3.84986e-08 DIIS
   @DF-RHF iter  10:  -154.14559519170965   -2.69921e-10   7.32169e-09 DIIS
  Energy and wave function converged.


  ==> Post-Iterations <==

    Orbital Energies [Eh]
    ---------------------

    Doubly Occupied:                                                      

       1A    -20.555952     2A    -11.272071     3A    -11.209372  
       4A     -1.358633     5A     -1.014569     6A     -0.834388  
       7A     -0.700467     8A     -0.647347     9A     -0.572838  
      10A     -0.534257    11A     -0.525939    12A     -0.488592  
      13A     -0.441718  

    Virtual:                                                              

      14A      0.024397    15A      0.036989    16A      0.040616  
      17A      0.043936    18A      0.057587    19A      0.059685  
      20A      0.069526    21A      0.075676    22A      0.092569  
      23A      0.113301    24A      0.116644    25A      0.132516  
      26A      0.133255    27A      0.141896    28A      0.142910  
      29A      0.149366    30A      0.162493    31A      0.170160  
      32A      0.199547    33A      0.204297    34A      0.212336  
      35A      0.215945    36A      0.230061    37A      0.231599  
      38A      0.259785    39A      0.260445    40A      0.274941  
      41A      0.276815    42A      0.293053    43A      0.296451  
      44A      0.299452    45A      0.306421    46A      0.325168  
      47A      0.337774    48A      0.342979    49A      0.346515  
      50A      0.358738    51A      0.359957    52A      0.363212  
      53A      0.378380    54A      0.378688    55A      0.385231  
      56A      0.395293    57A      0.401588    58A      0.403966  
      59A      0.414231    60A      0.422769    61A      0.432911  
      62A      0.436621    63A      0.456027    64A      0.456281  
      65A      0.461331    66A      0.462816    67A      0.466802  
      68A      0.478481    69A      0.492639    70A      0.501141  
      71A      0.509981    72A      0.515045    73A      0.526720  
      74A      0.530625    75A      0.553061    76A      0.554786  
      77A      0.575230    78A      0.592644    79A      0.618576  
      80A      0.628761    81A      0.659671    82A      0.701026  
      83A      0.708610    84A      0.728551    85A      0.731161  
      86A      0.752524    87A      0.784898    88A      0.791884  
      89A      0.799229    90A      0.806778    91A      0.821301  
      92A      0.831940    93A      0.833468    94A      0.834928  
      95A      0.851049    96A      0.856369    97A      0.857000  
      98A      0.882585    99A      0.883656   100A      0.895733  
     101A      0.897988   102A      0.910344   103A      0.915901  
     104A      0.916081   105A      0.938216   106A      0.941362  
     107A      0.954413   108A      0.960331   109A      0.978204  
     110A      0.993792   111A      0.995546   112A      1.011401  
     113A      1.014930   114A      1.022363   115A      1.032773  
     116A      1.046702   117A      1.051743   118A      1.068724  
     119A      1.084431   120A      1.084892   121A      1.104565  
     122A      1.104780   123A      1.114407   124A      1.128886  
     125A      1.144733   126A      1.149327   127A      1.152900  
     128A      1.154768   129A      1.176456   130A      1.191869  
     131A      1.201660   132A      1.209180   133A      1.219156  
     134A      1.230396   135A      1.233430   136A      1.257045  
     137A      1.270236   138A      1.294422   139A      1.299527  
     140A      1.301950   141A      1.316894   142A      1.362347  
     143A      1.373996   144A      1.378179   145A      1.395802  
     146A      1.396016   147A      1.421326   148A      1.427381  
     149A      1.467229   150A      1.485243   151A      1.492025  
     152A      1.517401   153A      1.518037   154A      1.566451  
     155A      1.589641   156A      1.604717   157A      1.621733  
     158A      1.627764   159A      1.636181   160A      1.676064  
     161A      1.681411   162A      1.694155   163A      1.706791  
     164A      1.707496   165A      1.718545   166A      1.723720  
     167A      1.753650   168A      1.757671   169A      1.776015  
     170A      1.789430   171A      1.807543   172A      1.812979  
     173A      1.826602   174A      1.835569   175A      1.845289  
     176A      1.855182   177A      1.880921   178A      1.898110  
     179A      1.917740   180A      1.939689   181A      1.955856  
     182A      1.977601   183A      1.978513   184A      2.021054  
     185A      2.037524   186A      2.078232   187A      2.094826  
     188A      2.117843   189A      2.142932   190A      2.172423  
     191A      2.205188   192A      2.233590   193A      2.237161  
     194A      2.268170   195A      2.279882   196A      2.306712  
     197A      2.349081   198A      2.363012   199A      2.396561  
     200A      2.428798   201A      2.457903   202A      2.526028  
     203A      2.550069   204A      2.567011   205A      2.600192  
     206A      2.624326   207A      2.638718   208A      2.658402  
     209A      2.682182   210A      2.732618   211A      2.758838  
     212A      2.793211   213A      2.846448   214A      2.876988  
     215A      2.891090   216A      2.937071   217A      2.957744  
     218A      2.986580   219A      3.004963   220A      3.056420  
     221A      3.130893   222A      3.135228   223A      3.143697  
     224A      3.173783   225A      3.199201   226A      3.272326  
     227A      3.296066   228A      3.317232   229A      3.340210  
     230A      3.384852   231A      3.420566   232A      3.421544  
     233A      3.455239   234A      3.480670   235A      3.571620  
     236A      3.572800   237A      3.601934   238A      3.633207  
     239A      3.661853   240A      3.661923   241A      3.670850  
     242A      3.696155   243A      3.714427   244A      3.733554  
     245A      3.746562   246A      3.770073   247A      3.822652  
     248A      3.835008   249A      3.844360   250A      3.927896  
     251A      3.971539   252A      3.973160   253A      3.989270  
     254A      4.009200   255A      4.069908   256A      4.090495  
     257A      4.117777   258A      4.146988   259A      4.175146  
     260A      4.192178   261A      4.204834   262A      4.225694  
     263A      4.267426   264A      4.276862   265A      4.335721  
     266A      4.350145   267A      4.365331   268A      4.388785  
     269A      4.463378   270A      4.503360   271A      4.517895  
     272A      4.547799   273A      4.554180   274A      4.579159  
     275A      4.597839   276A      4.603333   277A      4.640723  
     278A      4.684670   279A      4.695204   280A      4.710064  
     281A      4.717137   282A      4.772050   283A      4.780297  
     284A      4.818932   285A      4.850212   286A      4.856686  
     287A      4.871998   288A      4.929423   289A      4.931680  
     290A      4.960911   291A      5.002570   292A      5.015322  
     293A      5.061149   294A      5.080119   295A      5.095624  
     296A      5.126293   297A      5.143168   298A      5.156696  
     299A      5.179277   300A      5.207645   301A      5.293317  
     302A      5.318014   303A      5.338344   304A      5.358993  
     305A      5.391161   306A      5.430437   307A      5.437627  
     308A      5.486022   309A      5.487987   310A      5.553013  
     311A      5.556651   312A      5.623115   313A      5.648972  
     314A      5.722353   315A      5.755094   316A      5.812323  
     317A      5.814169   318A      5.864067   319A      5.865522  
     320A      5.911678   321A      6.000870   322A      6.038052  
     323A      6.054993   324A      6.132463   325A      6.208761  
     326A      6.238903   327A      6.320304   328A      6.324752  
     329A      6.374158   330A      6.517571   331A      6.667975  
     332A      6.680099   333A      6.714666   334A      6.777623  
     335A      6.827328   336A      6.972874   337A      6.973866  
     338A      7.048797   339A      7.125258   340A      7.394646  
     341A      7.438610   342A      7.548149   343A      7.607093  
     344A      7.616409   345A      7.782187   346A      7.881385  
     347A      7.899955   348A      8.081781   349A      8.165892  
     350A      8.174282   351A      8.267441   352A      8.360290  
     353A      8.624456   354A      8.800625   355A      8.812192  
     356A      9.863931   357A      9.998919   358A     10.100858  
     359A     10.427977   360A     11.242174   361A     11.909162  
     362A     12.396666   363A     13.549086   364A     13.863499  
     365A     16.439242   366A     18.129899   367A     18.464308  
     368A     66.580874  

    Final Occupation by Irrep:
              A 
    DOCC [    13 ]
    NA   [    13 ]
    NB   [    13 ]

  @DF-RHF Final Energy:  -154.14559519170965

   => Energetics <=

    Nuclear Repulsion Energy =             82.2166403441979128
    One-Electron Energy =                -372.4121835600963095
    Two-Electron Energy =                 136.0499480241887511
    Total Energy =                       -154.1455951917096456

Computation Completed


Properties will be evaluated at   0.000000,   0.000000,   0.000000 [a0]

Properties computed using the SCF density matrix


 Multipole Moments:

 ------------------------------------------------------------------------------------
     Multipole            Electronic (a.u.)      Nuclear  (a.u.)        Total (a.u.)
 ------------------------------------------------------------------------------------

 L = 1.  Multiply by 2.5417464519 to convert [e a0] to [Debye]
 Dipole X            :        -55.2519189           55.0814253           -0.1704936
 Dipole Y            :         -1.4544769            0.8049780           -0.6494990
 Dipole Z            :          0.0003774           -0.0003798           -0.0000024
 Magnitude           :                                                    0.6715035

 ------------------------------------------------------------------------------------

*** tstop() called on ivy at Thu Feb 27 15:07:49 2025
Module time:
	user time   =       5.80 seconds =       0.10 minutes
	system time =       0.22 seconds =       0.00 minutes
	total time  =          3 seconds =       0.05 minutes
Total time:
	user time   =      14.20 seconds =       0.24 minutes
	system time =       0.74 seconds =       0.01 minutes
	total time  =          8 seconds =       0.13 minutes

  //>>>>>>>>>>>>>>>>>>>>>>>>>>>>>>>>>>>//
  //            Monomer B HF           //
  //<<<<<<<<<<<<<<<<<<<<<<<<<<<<<<<<<<<//

   => Libint2 <=

    Primary   basis highest AM E, G, H:  6, 6, 3
    Auxiliary basis highest AM E, G, H:  7, 7, 4
    Onebody   basis highest AM E, G, H:  -, -, -
    Solid Harmonics ordering:            Gaussian

*** tstart() called on ivy
*** at Thu Feb 27 15:07:50 2025

   => Loading Basis Set <=

    Name: AUG-CC-PVTZ
    Role: ORBITAL
    Keyword: BASIS
    atoms 1-2        entry C          line   239 file /home/kchung25/miniconda3/envs/p4env/share/psi4/basis/aug-cc-pvtz.gbs 
    atoms 3, 10      entry O          line   331 file /home/kchung25/miniconda3/envs/p4env/share/psi4/basis/aug-cc-pvtz.gbs 
    atoms 4-9, 11-12 entry H          line    40 file /home/kchung25/miniconda3/envs/p4env/share/psi4/basis/aug-cc-pvtz.gbs 


         ---------------------------------------------------------
                                   SCF
               by Justin Turney, Rob Parrish, Andy Simmonett
                          and Daniel G. A. Smith
                              RHF Reference
                        2 Threads,   9536 MiB Core
         ---------------------------------------------------------

  ==> Geometry <==

    Molecular point group: c1
    Full point group: C1

    Geometry (in Angstrom), charge = 0, multiplicity = 1:

       Center              X                  Y                   Z               Mass       
    ------------   -----------------  -----------------  -----------------  -----------------
      Gh(C)           2.355352000000     0.003156000000     0.000061000000    12.000000000000
      Gh(C)           0.937302000000    -0.501955000000    -0.000075000000    12.000000000000
      Gh(O)           0.072422000000     0.620392000000    -0.000014000000    15.994914619570
      Gh(H)          -0.838375000000     0.302130000000     0.000003000000     1.007825032230
      Gh(H)           3.056621000000    -0.827988000000     0.000404000000     1.007825032230
      Gh(H)           2.535016000000     0.612763000000     0.881313000000     1.007825032230
      Gh(H)           2.535301000000     0.612274000000    -0.881468000000     1.007825032230
      Gh(H)           0.761942000000    -1.121834000000     0.881890000000     1.007825032230
      Gh(H)           0.762030000000    -1.121711000000    -0.882147000000     1.007825032230
         O           -2.563531000000    -0.134367000000    -0.000005000000    15.994914619570
         H           -3.014237000000     0.242213000000    -0.759526000000     1.007825032230
         H           -3.014087000000     0.241425000000     0.759996000000     1.007825032230

  Running in c1 symmetry.

  Rotational constants: A =      0.93984  B =      0.07355  C =      0.07067 [cm^-1]
  Rotational constants: A =  28175.68946  B =   2205.02380  C =   2118.66837 [MHz]
  Nuclear repulsion =    9.166814305179232

  Charge       = 0
  Multiplicity = 1
  Electrons    = 10
  Nalpha       = 5
  Nbeta        = 5

  ==> Algorithm <==

  SCF Algorithm Type is DF.
  DIIS enabled.
  MOM disabled.
  Fractional occupation disabled.
  Guess Type is SAD.
  Energy threshold   = 1.00e-08
  Density threshold  = 1.00e-08
  Integral threshold = 1.00e-12

  ==> Primary Basis <==

  Basis Set: AUG-CC-PVTZ
    Blend: AUG-CC-PVTZ
    Number of shells: 128
    Number of basis functions: 368
    Number of Cartesian functions: 420
    Spherical Harmonics?: true
    Max angular momentum: 3

   => Loading Basis Set <=

    Name: (AUG-CC-PVTZ AUX)
    Role: JKFIT
    Keyword: DF_BASIS_SCF
    atoms 1-2        entry C          line   162 file /home/kchung25/miniconda3/envs/p4env/share/psi4/basis/aug-cc-pvtz-jkfit.gbs 
    atoms 3, 10      entry O          line   286 file /home/kchung25/miniconda3/envs/p4env/share/psi4/basis/aug-cc-pvtz-jkfit.gbs 
    atoms 4-9, 11-12 entry H          line    70 file /home/kchung25/miniconda3/envs/p4env/share/psi4/basis/aug-cc-pvtz-jkfit.gbs 

  ==> Integral Setup <==

  ==> DiskDFJK: Density-Fitted J/K Matrices <==

    J tasked:                  Yes
    K tasked:                  Yes
    wK tasked:                  No
    OpenMP threads:              2
    Integrals threads:           2
    Memory [MiB]:             7152
    Algorithm:                Core
    Integral Cache:           LOAD
    Schwarz Cutoff:          1E-12
    Fitting Condition:       1E-10

   => Auxiliary Basis Set <=

  Basis Set: (AUG-CC-PVTZ AUX)
    Blend: AUG-CC-PVTZ-JKFIT
    Number of shells: 232
    Number of basis functions: 784
    Number of Cartesian functions: 964
    Spherical Harmonics?: true
    Max angular momentum: 4

  Minimum eigenvalue in the overlap matrix is 1.5459186830E-05.
  Reciprocal condition number of the overlap matrix is 1.0424649468E-06.
    Using symmetric orthogonalization.

  ==> Pre-Iterations <==

  SCF Guess: Superposition of Atomic Densities via on-the-fly atomic UHF (no occupation information).

   -------------------------
    Irrep   Nso     Nmo    
   -------------------------
     A        368     368 
   -------------------------
    Total     368     368
   -------------------------

  ==> Iterations <==

                           Total Energy        Delta E     RMS |[F,P]|

   @DF-RHF iter SAD:   -75.47463975334344   -7.54746e+01   0.00000e+00 
   @DF-RHF iter   1:   -75.97616970507262   -5.01530e-01   1.27300e-03 ADIIS/DIIS
   @DF-RHF iter   2:   -76.02864802225940   -5.24783e-02   8.68091e-04 ADIIS/DIIS
   @DF-RHF iter   3:   -76.06010849326648   -3.14605e-02   5.90484e-05 DIIS
   @DF-RHF iter   4:   -76.06049940444635   -3.90911e-04   1.41338e-05 DIIS
   @DF-RHF iter   5:   -76.06052386800263   -2.44636e-05   3.21171e-06 DIIS
   @DF-RHF iter   6:   -76.06052587161604   -2.00361e-06   7.05149e-07 DIIS
   @DF-RHF iter   7:   -76.06052597802568   -1.06410e-07   1.27994e-07 DIIS
   @DF-RHF iter   8:   -76.06052598111515   -3.08947e-09   2.14494e-08 DIIS
   @DF-RHF iter   9:   -76.06052598118389   -6.87379e-11   5.28382e-09 DIIS
  Energy and wave function converged.


  ==> Post-Iterations <==

    Orbital Energies [Eh]
    ---------------------

    Doubly Occupied:                                                      

       1A    -20.567444     2A     -1.351914     3A     -0.716344  
       4A     -0.584083     5A     -0.510069  

    Virtual:                                                              

       6A      0.023097     7A      0.033194     8A      0.040789  
       9A      0.043827    10A      0.056310    11A      0.056973  
      12A      0.071654    13A      0.072324    14A      0.099609  
      15A      0.114334    16A      0.119874    17A      0.125516  
      18A      0.127150    19A      0.130354    20A      0.132852  
      21A      0.149833    22A      0.165402    23A      0.184270  
      24A      0.185499    25A      0.203436    26A      0.205777  
      27A      0.226936    28A      0.235498    29A      0.243689  
      30A      0.244404    31A      0.251658    32A      0.270072  
      33A      0.281924    34A      0.282004    35A      0.289745  
      36A      0.300809    37A      0.306108    38A      0.314834  
      39A      0.319666    40A      0.322529    41A      0.331862  
      42A      0.342699    43A      0.362697    44A      0.368267  
      45A      0.383782    46A      0.386267    47A      0.407065  
      48A      0.408509    49A      0.414908    50A      0.423928  
      51A      0.426679    52A      0.441340    53A      0.444357  
      54A      0.447268    55A      0.462010    56A      0.467510  
      57A      0.481524    58A      0.482110    59A      0.496911  
      60A      0.500699    61A      0.506808    62A      0.519160  
      63A      0.528546    64A      0.537627    65A      0.544090  
      66A      0.576006    67A      0.590115    68A      0.590840  
      69A      0.604323    70A      0.621391    71A      0.642318  
      72A      0.647046    73A      0.654526    74A      0.661014  
      75A      0.678347    76A      0.681804    77A      0.696788  
      78A      0.721526    79A      0.725288    80A      0.743888  
      81A      0.778106    82A      0.783648    83A      0.817165  
      84A      0.852586    85A      0.862452    86A      0.874850  
      87A      0.879973    88A      0.891200    89A      0.899641  
      90A      0.929943    91A      0.937761    92A      0.947227  
      93A      0.962357    94A      0.963791    95A      0.973115  
      96A      0.987716    97A      0.998124    98A      1.015550  
      99A      1.023116   100A      1.030737   101A      1.035310  
     102A      1.041414   103A      1.050764   104A      1.062319  
     105A      1.062902   106A      1.081035   107A      1.089370  
     108A      1.094272   109A      1.098760   110A      1.099965  
     111A      1.112434   112A      1.116829   113A      1.137698  
     114A      1.143247   115A      1.149191   116A      1.170827  
     117A      1.183904   118A      1.188469   119A      1.200518  
     120A      1.215261   121A      1.216973   122A      1.220730  
     123A      1.242199   124A      1.244079   125A      1.258068  
     126A      1.273715   127A      1.282739   128A      1.283776  
     129A      1.293708   130A      1.323215   131A      1.327860  
     132A      1.345135   133A      1.360765   134A      1.369228  
     135A      1.376967   136A      1.390655   137A      1.399171  
     138A      1.410857   139A      1.435514   140A      1.435622  
     141A      1.466649   142A      1.480673   143A      1.501016  
     144A      1.507164   145A      1.522290   146A      1.581338  
     147A      1.584424   148A      1.596337   149A      1.610494  
     150A      1.634924   151A      1.641177   152A      1.682581  
     153A      1.691127   154A      1.724237   155A      1.745392  
     156A      1.794305   157A      1.798310   158A      1.801440  
     159A      1.811889   160A      1.815680   161A      1.846506  
     162A      1.857238   163A      1.858821   164A      1.925778  
     165A      1.926448   166A      1.946336   167A      1.965154  
     168A      1.971691   169A      1.997838   170A      2.033338  
     171A      2.046101   172A      2.074956   173A      2.077912  
     174A      2.083605   175A      2.113491   176A      2.136854  
     177A      2.151689   178A      2.180309   179A      2.187652  
     180A      2.212293   181A      2.224962   182A      2.225477  
     183A      2.267444   184A      2.277046   185A      2.302972  
     186A      2.380183   187A      2.381162   188A      2.409845  
     189A      2.423750   190A      2.445735   191A      2.457064  
     192A      2.472696   193A      2.497481   194A      2.530734  
     195A      2.551818   196A      2.575181   197A      2.596609  
     198A      2.639271   199A      2.652647   200A      2.685933  
     201A      2.693415   202A      2.695020   203A      2.727453  
     204A      2.731800   205A      2.738649   206A      2.741117  
     207A      2.794988   208A      2.816666   209A      2.826669  
     210A      2.858838   211A      2.879909   212A      2.898067  
     213A      2.940852   214A      3.009596   215A      3.038383  
     216A      3.078766   217A      3.080299   218A      3.154950  
     219A      3.179028   220A      3.188775   221A      3.428833  
     222A      3.484147   223A      3.493998   224A      3.582804  
     225A      3.649006   226A      3.666449   227A      3.673284  
     228A      3.803540   229A      3.867412   230A      3.906768  
     231A      3.951126   232A      4.072708   233A      4.097393  
     234A      4.106095   235A      4.115701   236A      4.140945  
     237A      4.170314   238A      4.202354   239A      4.212284  
     240A      4.238356   241A      4.268881   242A      4.277503  
     243A      4.280216   244A      4.294407   245A      4.336329  
     246A      4.397939   247A      4.405548   248A      4.440013  
     249A      4.446778   250A      4.471252   251A      4.501289  
     252A      4.505797   253A      4.525921   254A      4.565565  
     255A      4.588840   256A      4.604845   257A      4.615907  
     258A      4.646627   259A      4.650743   260A      4.672744  
     261A      4.687381   262A      4.698466   263A      4.728644  
     264A      4.783499   265A      4.794631   266A      4.821631  
     267A      4.878608   268A      4.888867   269A      4.898527  
     270A      4.910161   271A      4.930799   272A      4.940881  
     273A      4.992411   274A      5.039132   275A      5.056729  
     276A      5.086896   277A      5.101888   278A      5.164026  
     279A      5.194971   280A      5.207897   281A      5.240577  
     282A      5.269619   283A      5.291987   284A      5.332499  
     285A      5.336650   286A      5.358140   287A      5.364778  
     288A      5.379139   289A      5.432772   290A      5.439119  
     291A      5.500722   292A      5.507372   293A      5.537481  
     294A      5.563099   295A      5.585499   296A      5.596375  
     297A      5.652049   298A      5.662924   299A      5.682739  
     300A      5.731255   301A      5.758369   302A      5.782107  
     303A      5.830209   304A      5.880055   305A      5.958523  
     306A      5.996368   307A      6.033813   308A      6.062136  
     309A      6.117214   310A      6.153145   311A      6.210601  
     312A      6.284425   313A      6.319200   314A      6.414770  
     315A      6.487124   316A      6.583069   317A      6.589973  
     318A      6.747631   319A      6.797407   320A      6.854616  
     321A      6.891637   322A      6.992887   323A      7.010078  
     324A      7.056792   325A      7.117441   326A      7.213729  
     327A      7.281285   328A      7.332734   329A      7.354875  
     330A      7.392806   331A      7.413575   332A      7.426727  
     333A      7.535860   334A      7.748341   335A      7.767660  
     336A      7.847225   337A      7.877866   338A      7.880982  
     339A      7.921911   340A      7.926344   341A      7.974752  
     342A      8.008316   343A      8.092941   344A      8.101485  
     345A      8.144322   346A      8.236228   347A      8.344957  
     348A      8.345419   349A      8.455758   350A      8.699418  
     351A      8.950038   352A      8.958620   353A      9.057879  
     354A      9.942747   355A     10.149179   356A     10.401544  
     357A     10.469053   358A     10.499137   359A     10.812330  
     360A     11.143177   361A     11.964233   362A     12.411500  
     363A     13.290504   364A     14.408545   365A     16.756227  
     366A     52.977554   367A     54.193897   368A     67.040026  

    Final Occupation by Irrep:
              A 
    DOCC [     5 ]
    NA   [     5 ]
    NB   [     5 ]

  @DF-RHF Final Energy:   -76.06052598118389

   => Energetics <=

    Nuclear Repulsion Energy =              9.1668143051792317
    One-Electron Energy =                -122.9949667670932314
    Two-Electron Energy =                  37.7676264807301152
    Total Energy =                        -76.0605259811838863

Computation Completed


Properties will be evaluated at   0.000000,   0.000000,   0.000000 [a0]

Properties computed using the SCF density matrix


 Multipole Moments:

 ------------------------------------------------------------------------------------
     Multipole            Electronic (a.u.)      Nuclear  (a.u.)        Total (a.u.)
 ------------------------------------------------------------------------------------

 L = 1.  Multiply by 2.5417464519 to convert [e a0] to [Debye]
 Dipole X            :         49.5485753          -50.1468534           -0.5982781
 Dipole Y            :          1.6164304           -1.1173913            0.4990391
 Dipole Z            :         -0.0004943            0.0008126            0.0003183
 Magnitude           :                                                    0.7790872

 ------------------------------------------------------------------------------------

*** tstop() called on ivy at Thu Feb 27 15:07:52 2025
Module time:
	user time   =       4.74 seconds =       0.08 minutes
	system time =       0.18 seconds =       0.00 minutes
	total time  =          2 seconds =       0.03 minutes
Total time:
	user time   =      18.95 seconds =       0.32 minutes
	system time =       0.92 seconds =       0.02 minutes
	total time  =         11 seconds =       0.18 minutes
  Constructing Basis Sets for SAPT...

   => Loading Basis Set <=

    Name: (AUG-CC-PVTZ AUX)
    Role: RIFIT
    Keyword: DF_BASIS_SAPT
    atoms 1-2        entry C          line   148 file /home/kchung25/miniconda3/envs/p4env/share/psi4/basis/aug-cc-pvtz-ri.gbs 
    atoms 3, 10      entry O          line   264 file /home/kchung25/miniconda3/envs/p4env/share/psi4/basis/aug-cc-pvtz-ri.gbs 
    atoms 4-9, 11-12 entry H          line    30 file /home/kchung25/miniconda3/envs/p4env/share/psi4/basis/aug-cc-pvtz-ri.gbs 

   => Loading Basis Set <=

    Name: (AUG-CC-PVTZ AUX)
    Role: JKFIT
    Keyword: DF_BASIS_ELST
    atoms 1-2        entry C          line   162 file /home/kchung25/miniconda3/envs/p4env/share/psi4/basis/aug-cc-pvtz-jkfit.gbs 
    atoms 3, 10      entry O          line   286 file /home/kchung25/miniconda3/envs/p4env/share/psi4/basis/aug-cc-pvtz-jkfit.gbs 
    atoms 4-9, 11-12 entry H          line    70 file /home/kchung25/miniconda3/envs/p4env/share/psi4/basis/aug-cc-pvtz-jkfit.gbs 


  //>>>>>>>>>>>>>>>>>>>>>>>>>>>>>>>>>>>//
  //               SAPT2+              //
  //<<<<<<<<<<<<<<<<<<<<<<<<<<<<<<<<<<<//


*** tstart() called on ivy
*** at Thu Feb 27 15:07:52 2025

        SAPT2+  
    Ed Hohenstein
     6 June 2009

      Orbital Information
  --------------------------
    NSO        =       368
    NMO        =       368
    NRI        =       792
    NOCC A     =        13
    NOCC B     =         5
    FOCC A     =         0
    FOCC B     =         0
    NVIR A     =       355
    NVIR B     =       363

    Estimated memory usage: 1369.3 MB

    Natural Orbital Cutoff:   1.000E-06
    Disp(T3) Truncation:            Yes
    CCD (vv|vv) Truncation:         Yes
    MBPT T2 Truncation:             Yes

    Monomer A: 124 virtual orbitals dropped
    Monomer B: 278 virtual orbitals dropped

    Elst10,r            =    -0.018153328852 [Eh]
    Exch10 (S^2)        =     0.020743763458 [Eh]
    Exch10              =     0.021004301333 [Eh]
    Ind20,r (A<-B)      =    -0.003575933297 [Eh]
    Ind20,r (B<-A)      =    -0.005605680961 [Eh]
    Ind20,r             =    -0.009181614258 [Eh]
    Exch-Ind20,r (A<-B) =     0.002818565243 [Eh]
    Exch-Ind20,r (B<-A) =     0.002894044154 [Eh]
    Exch-Ind20,r        =     0.005712609397 [Eh]
    Disp20              =    -0.006711255049 [Eh]
    Disp20 (NO)         =    -0.005754948783 [Eh]
    Exch-Disp20         =     0.001375431709 [Eh]
    Elst12,r            =    -0.000231951177 [Eh]
    Exch11              =     0.000199466416 [Eh]
    Exch12              =     0.002759705477 [Eh]
    Ind22               =    -0.001506141106 [Eh]
    Disp21              =     0.000226856832 [Eh]
    Disp22 (SDQ)        =    -0.000090527764 [Eh]

    (i =   1 of   5)         16 seconds
    (i =   2 of   5)         33 seconds
    (i =   3 of   5)         49 seconds
    (i =   4 of   5)         65 seconds
    (i =   5 of   5)         81 seconds

    Disp220 (T)         =    -0.000518471231 [Eh]

    (i =   1 of  13)          2 seconds
    (i =   2 of  13)          3 seconds
    (i =   3 of  13)          4 seconds
    (i =   4 of  13)          5 seconds
    (i =   5 of  13)          6 seconds
    (i =   6 of  13)          7 seconds
    (i =   7 of  13)          8 seconds
    (i =   8 of  13)          9 seconds
    (i =   9 of  13)         10 seconds
    (i =  10 of  13)         11 seconds
    (i =  11 of  13)         12 seconds
    (i =  12 of  13)         13 seconds
    (i =  13 of  13)         14 seconds

    Disp202 (T)         =    -0.000454546630 [Eh]

    Disp22 (T)          =    -0.000973017861 [Eh]

    Est. Disp220 (T)    =    -0.000604626174 [Eh]
    Est. Disp202 (T)    =    -0.000530079151 [Eh]

    Est. Disp22 (T)     =    -0.001134705325 [Eh]

    SAPT Results 
  --------------------------------------------------------------------------------------------------------
    Electrostatics                -18.38528003 [mEh]     -11.53693740 [kcal/mol]     -48.27054607 [kJ/mol]
      Elst10,r                    -18.15332885 [mEh]     -11.39138584 [kcal/mol]     -47.66155833 [kJ/mol]
      Elst12,r                     -0.23195118 [mEh]      -0.14555156 [kcal/mol]      -0.60898773 [kJ/mol]

    Exchange                       23.96347323 [mEh]      15.03730647 [kcal/mol]      62.91609029 [kJ/mol]
      Exch10                       21.00430133 [mEh]      13.18039808 [kcal/mol]      55.14678555 [kJ/mol]
      Exch10(S^2)                  20.74376346 [mEh]      13.01690809 [kcal/mol]      54.46274346 [kJ/mol]
      Exch11(S^2)                   0.19946642 [mEh]       0.12516707 [kcal/mol]       0.52369900 [kJ/mol]
      Exch12(S^2)                   2.75970548 [mEh]       1.73174133 [kcal/mol]       7.24560573 [kJ/mol]

    Induction                      -6.88409771 [mEh]      -4.31983653 [kcal/mol]     -18.07419604 [kJ/mol]
      Ind20,r                      -9.18161426 [mEh]      -5.76154993 [kcal/mol]     -24.10632491 [kJ/mol]
      Ind22                        -1.50614111 [mEh]      -0.94511781 [kcal/mol]      -3.95437293 [kJ/mol]
      Exch-Ind20,r                  5.71260940 [mEh]       3.58471652 [kcal/mol]      14.99845390 [kJ/mol]
      Exch-Ind22                    0.93708967 [mEh]       0.58803264 [kcal/mol]       2.46032858 [kJ/mol]
      delta HF,r (2)               -2.84604141 [mEh]      -1.78591795 [kcal/mol]      -7.47228068 [kJ/mol]

    Dispersion                     -6.33419960 [mEh]      -3.97477026 [kcal/mol]     -16.63043875 [kJ/mol]
      Disp20                       -6.71125505 [mEh]      -4.21137612 [kcal/mol]     -17.62039770 [kJ/mol]
      Disp21                        0.22685683 [mEh]       0.14235481 [kcal/mol]       0.59561253 [kJ/mol]
      Disp22 (SDQ)                 -0.09052776 [mEh]      -0.05680703 [kcal/mol]      -0.23768061 [kJ/mol]
      Disp22 (T)                   -0.97301786 [mEh]      -0.61057793 [kcal/mol]      -2.55465804 [kJ/mol]
      Est. Disp22 (T)              -1.13470533 [mEh]      -0.71203834 [kcal/mol]      -2.97916842 [kJ/mol]
      Exch-Disp20                   1.37543171 [mEh]       0.86309643 [kcal/mol]       3.61119546 [kJ/mol]

  Total HF                         -3.46407379 [mEh]      -2.17373912 [kcal/mol]      -9.09492447 [kJ/mol]
  Total SAPT0                      -8.79989713 [mEh]      -5.52201881 [kcal/mol]     -23.10412672 [kJ/mol]
  Total SAPT2                      -6.64172785 [mEh]      -4.16774715 [kcal/mol]     -17.43785407 [kJ/mol]
  Total SAPT2+                     -7.64010411 [mEh]      -4.79423771 [kcal/mol]     -20.05909057 [kJ/mol]

  Special recipe for scaled SAPT0 (see Manual):
    Electrostatics sSAPT0         -18.15332885 [mEh]     -11.39138584 [kcal/mol]     -47.66155833 [kJ/mol]
    Exchange sSAPT0                21.00430133 [mEh]      13.18039808 [kcal/mol]      55.14678555 [kJ/mol]
    Induction sSAPT0               -6.09708349 [mEh]      -3.82597765 [kcal/mol]     -16.00789049 [kJ/mol]
    Dispersion sSAPT0              -5.28334418 [mEh]      -3.31534853 [kcal/mol]     -13.87141824 [kJ/mol]
  Total sSAPT0                     -8.52945519 [mEh]      -5.35231394 [kcal/mol]     -22.39408151 [kJ/mol]
  --------------------------------------------------------------------------------------------------------

*** tstop() called on ivy at Thu Feb 27 15:10:57 2025
Module time:
	user time   =     318.37 seconds =       5.31 minutes
	system time =      14.63 seconds =       0.24 minutes
	total time  =        185 seconds =       3.08 minutes
Total time:
	user time   =     337.37 seconds =       5.62 minutes
	system time =      15.55 seconds =       0.26 minutes
	total time  =        196 seconds =       3.27 minutes

    Psi4 stopped on: Thursday, 27 February 2025 03:10PM
    Psi4 wall time for execution: 0:03:16.15

*** Psi4 exiting successfully. Buy a developer a beer!
