
    -----------------------------------------------------------------------
          Psi4: An Open-Source Ab Initio Electronic Structure Package
                               Psi4 1.9 release

                         Git: Rev {} zzzzzzz 


    D. G. A. Smith, L. A. Burns, A. C. Simmonett, R. M. Parrish,
    M. C. Schieber, R. Galvelis, P. Kraus, H. Kruse, R. Di Remigio,
    A. Alenaizan, A. M. James, S. Lehtola, J. P. Misiewicz, M. Scheurer,
    R. A. Shaw, J. B. Schriber, Y. Xie, Z. L. Glick, D. A. Sirianni,
    J. S. O'Brien, J. M. Waldrop, A. Kumar, E. G. Hohenstein,
    B. P. Pritchard, B. R. Brooks, H. F. Schaefer III, A. Yu. Sokolov,
    K. Patkowski, A. E. DePrince III, U. Bozkaya, R. A. King,
    F. A. Evangelista, J. M. Turney, T. D. Crawford, C. D. Sherrill,
    J. Chem. Phys. 152(18) 184108 (2020). https://doi.org/10.1063/5.0006002

                            Additional Code Authors
    E. T. Seidl, C. L. Janssen, E. F. Valeev, M. L. Leininger,
    J. F. Gonthier, R. M. Richard, H. R. McAlexander, M. Saitow, X. Wang,
    P. Verma, M. H. Lechner, A. Jiang, S. Behnle, A. G. Heide,
    M. F. Herbst, and D. L. Poole

             Previous Authors, Complete List of Code Contributors,
                       and Citations for Specific Modules
    https://github.com/psi4/psi4/blob/master/codemeta.json
    https://github.com/psi4/psi4/graphs/contributors
    http://psicode.org/psi4manual/master/introduction.html#citing-psifour

    -----------------------------------------------------------------------


    Psi4 started on: Sunday, 02 March 2025 07:59AM

    Process ID: 211697
    Host:       moses-razer
    PSIDATADIR: /home/kchung25/anaconda3/envs/psi4_19/share/psi4
    Memory:     500.0 MiB
    Threads:    1
    
  ==> Input File <==

--------------------------------------------------------------------------
MEMORY 10 GB

molecule dimer {
0 1
C   -1.622156  -1.034011   0.723606
C   -1.747571  -0.191969  -0.519332
O   -1.849541   1.187285  -0.228957
H   -2.586585   1.315770   0.373451
H   -1.465242  -2.084267   0.470869
H   -2.522520  -0.965561   1.342356
H   -0.772502  -0.698902   1.323255
H   -2.601103  -0.525898  -1.126410
H   -0.849120  -0.305686  -1.130386
--
0 1
C    1.641844   1.231324   0.240183
C    2.023378  -0.218832   0.397284
O    1.571823  -1.020440  -0.674060
H    1.922783  -0.653804  -1.489878
H    1.995956   1.821418   1.088424
H    0.557513   1.350763   0.164426
H    2.093802   1.653399  -0.662995
H    1.564837  -0.641555   1.296139
H    3.110955  -0.319504   0.524445

units ang
no_reorient
no_com
symmetry c1
}

set {
basis        aug-cc-pVTZ
scf_type     df
}

energy("sapt2+")
--------------------------------------------------------------------------

  Memory set to   9.313 GiB by Python driver.

Scratch directory: /scratch/
   => Loading Basis Set <=

    Name: AUG-CC-PVTZ
    Role: ORBITAL
    Keyword: BASIS
    atoms 1-2, 10-11 entry C          line   239 file /home/kchung25/anaconda3/envs/p415env/share/psi4/basis/aug-cc-pvtz.gbs 
    atoms 3, 12      entry O          line   331 file /home/kchung25/anaconda3/envs/p415env/share/psi4/basis/aug-cc-pvtz.gbs 
    atoms 4-9, 13-18 entry H          line    40 file /home/kchung25/anaconda3/envs/p415env/share/psi4/basis/aug-cc-pvtz.gbs 

   => Loading Basis Set <=

    Name: AUG-CC-PVTZ
    Role: ORBITAL
    Keyword: BASIS
    atoms 1-2, 10-11 entry C          line   239 file /home/kchung25/anaconda3/envs/p415env/share/psi4/basis/aug-cc-pvtz.gbs 
    atoms 3, 12      entry O          line   331 file /home/kchung25/anaconda3/envs/p415env/share/psi4/basis/aug-cc-pvtz.gbs 
    atoms 4-9, 13-18 entry H          line    40 file /home/kchung25/anaconda3/envs/p415env/share/psi4/basis/aug-cc-pvtz.gbs 


  //>>>>>>>>>>>>>>>>>>>>>>>>>>>>>>>>>>>//
  //              Dimer HF             //
  //<<<<<<<<<<<<<<<<<<<<<<<<<<<<<<<<<<<//

   => Libint2 <=

    Primary   basis highest AM E, G, H:  5, 4, 3
    Auxiliary basis highest AM E, G, H:  6, 5, 4
    Onebody   basis highest AM E, G, H:  6, 5, 4
    Solid Harmonics ordering:            gaussian

*** tstart() called on moses-razer
*** at Sun Mar  2 07:59:43 2025

   => Loading Basis Set <=

    Name: AUG-CC-PVTZ
    Role: ORBITAL
    Keyword: BASIS
    atoms 1-2, 10-11 entry C          line   239 file /home/kchung25/anaconda3/envs/p415env/share/psi4/basis/aug-cc-pvtz.gbs 
    atoms 3, 12      entry O          line   331 file /home/kchung25/anaconda3/envs/p415env/share/psi4/basis/aug-cc-pvtz.gbs 
    atoms 4-9, 13-18 entry H          line    40 file /home/kchung25/anaconda3/envs/p415env/share/psi4/basis/aug-cc-pvtz.gbs 


         ---------------------------------------------------------
                                   SCF
               by Justin Turney, Rob Parrish, Andy Simmonett
                          and Daniel G. A. Smith
                              RHF Reference
                        1 Threads,   9536 MiB Core
         ---------------------------------------------------------

  ==> Geometry <==

    Molecular point group: c1
    Full point group: C1

    Geometry (in Angstrom), charge = 0, multiplicity = 1:

       Center              X                  Y                   Z               Mass       
    ------------   -----------------  -----------------  -----------------  -----------------
         C           -1.622156000000    -1.034011000000     0.723606000000    12.000000000000
         C           -1.747571000000    -0.191969000000    -0.519332000000    12.000000000000
         O           -1.849541000000     1.187285000000    -0.228957000000    15.994914619570
         H           -2.586585000000     1.315770000000     0.373451000000     1.007825032230
         H           -1.465242000000    -2.084267000000     0.470869000000     1.007825032230
         H           -2.522520000000    -0.965561000000     1.342356000000     1.007825032230
         H           -0.772502000000    -0.698902000000     1.323255000000     1.007825032230
         H           -2.601103000000    -0.525898000000    -1.126410000000     1.007825032230
         H           -0.849120000000    -0.305686000000    -1.130386000000     1.007825032230
         C            1.641844000000     1.231324000000     0.240183000000    12.000000000000
         C            2.023378000000    -0.218832000000     0.397284000000    12.000000000000
         O            1.571823000000    -1.020440000000    -0.674060000000    15.994914619570
         H            1.922783000000    -0.653804000000    -1.489878000000     1.007825032230
         H            1.995956000000     1.821418000000     1.088424000000     1.007825032230
         H            0.557513000000     1.350763000000     0.164426000000     1.007825032230
         H            2.093802000000     1.653399000000    -0.662995000000     1.007825032230
         H            1.564837000000    -0.641555000000     1.296139000000     1.007825032230
         H            3.110955000000    -0.319504000000     0.524445000000     1.007825032230

  Running in c1 symmetry.

  Rotational constants: A =      0.14016  B =      0.05186  C =      0.04434 [cm^-1]
  Rotational constants: A =   4201.83771  B =   1554.74550  C =   1329.37904 [MHz]
  Nuclear repulsion =  257.704841703364423

  Charge       = 0
  Multiplicity = 1
  Electrons    = 52
  Nalpha       = 26
  Nbeta        = 26

  ==> Algorithm <==

  SCF Algorithm Type is DF.
  DIIS enabled.
  MOM disabled.
  Fractional occupation disabled.
  Guess Type is SAD.
  Energy threshold   = 1.00e-08
  Density threshold  = 1.00e-08
  Integral threshold = 1.00e-12

  ==> Primary Basis <==

  Basis Set: AUG-CC-PVTZ
    Blend: AUG-CC-PVTZ
    Number of shells: 192
    Number of basis functions: 552
    Number of Cartesian functions: 630
    Spherical Harmonics?: true
    Max angular momentum: 3

   => Loading Basis Set <=

    Name: (AUG-CC-PVTZ AUX)
    Role: JKFIT
    Keyword: DF_BASIS_SCF
    atoms 1-2, 10-11 entry C          line   162 file /home/kchung25/anaconda3/envs/p415env/share/psi4/basis/aug-cc-pvtz-jkfit.gbs 
    atoms 3, 12      entry O          line   286 file /home/kchung25/anaconda3/envs/p415env/share/psi4/basis/aug-cc-pvtz-jkfit.gbs 
    atoms 4-9, 13-18 entry H          line    70 file /home/kchung25/anaconda3/envs/p415env/share/psi4/basis/aug-cc-pvtz-jkfit.gbs 

  ==> Integral Setup <==

  ==> DiskDFJK: Density-Fitted J/K Matrices <==

    J tasked:                  Yes
    K tasked:                  Yes
    wK tasked:                  No
    OpenMP threads:              1
    Integrals threads:           1
    Memory [MiB]:             7152
    Algorithm:                Core
    Integral Cache:           SAVE
    Schwarz Cutoff:          1E-12
    Fitting Condition:       1E-10

   => Auxiliary Basis Set <=

  Basis Set: (AUG-CC-PVTZ AUX)
    Blend: AUG-CC-PVTZ-JKFIT
    Number of shells: 348
    Number of basis functions: 1176
    Number of Cartesian functions: 1446
    Spherical Harmonics?: true
    Max angular momentum: 4

  Minimum eigenvalue in the overlap matrix is 5.5949001548E-06.
  Reciprocal condition number of the overlap matrix is 2.8971332624E-07.
    Using symmetric orthogonalization.

  ==> Pre-Iterations <==

  SCF Guess: Superposition of Atomic Densities via on-the-fly atomic UHF (no occupation information).

   -------------------------
    Irrep   Nso     Nmo    
   -------------------------
     A        552     552 
   -------------------------
    Total     552     552
   -------------------------

  ==> Iterations <==

                           Total Energy        Delta E     RMS |[F,P]|

   @DF-RHF iter SAD:  -307.07856424838883   -3.07079e+02   0.00000e+00 
   @DF-RHF iter   1:  -308.00788964083910   -9.29325e-01   1.31234e-03 ADIIS/DIIS
   @DF-RHF iter   2:  -308.22995158562100   -2.22062e-01   6.86866e-04 ADIIS/DIIS
   @DF-RHF iter   3:  -308.28458064881886   -5.46291e-02   1.19916e-04 ADIIS/DIIS
   @DF-RHF iter   4:  -308.28778802136947   -3.20737e-03   4.42293e-05 DIIS
   @DF-RHF iter   5:  -308.28813962102060   -3.51600e-04   9.02653e-06 DIIS
   @DF-RHF iter   6:  -308.28816098051743   -2.13595e-05   2.14622e-06 DIIS
   @DF-RHF iter   7:  -308.28816259450400   -1.61399e-06   6.13203e-07 DIIS
   @DF-RHF iter   8:  -308.28816271498044   -1.20476e-07   1.92180e-07 DIIS
   @DF-RHF iter   9:  -308.28816272890595   -1.39255e-08   4.85615e-08 DIIS
   @DF-RHF iter  10:  -308.28816272985682   -9.50877e-10   1.00591e-08 DIIS
   @DF-RHF iter  11:  -308.28816272989008   -3.32534e-11   3.88925e-09 DIIS
  Energy and wave function converged.


  ==> Post-Iterations <==

    Orbital Energies [Eh]
    ---------------------

    Doubly Occupied:                                                      

       1A    -20.554908     2A    -20.552101     3A    -11.270471  
       4A    -11.263697     5A    -11.210553     6A    -11.207860  
       7A     -1.361636     8A     -1.358041     9A     -1.009129  
      10A     -1.006522    11A     -0.845351    12A     -0.840020  
      13A     -0.690348    14A     -0.677344    15A     -0.623762  
      16A     -0.619122    17A     -0.611959    18A     -0.602570  
      19A     -0.544490    20A     -0.532996    21A     -0.520799  
      22A     -0.516426    23A     -0.477919    24A     -0.473576  
      25A     -0.439506    26A     -0.438098  

    Virtual:                                                              

      27A      0.029495    28A      0.034219    29A      0.037047  
      30A      0.041163    31A      0.050908    32A      0.053344  
      33A      0.057151    34A      0.063047    35A      0.066330  
      36A      0.082234    37A      0.085820    38A      0.088106  
      39A      0.110930    40A      0.113358    41A      0.121563  
      42A      0.125120    43A      0.127930    44A      0.130333  
      45A      0.133917    46A      0.147619    47A      0.155464  
      48A      0.158666    49A      0.161155    50A      0.165196  
      51A      0.171985    52A      0.180973    53A      0.184136  
      54A      0.191684    55A      0.195877    56A      0.205143  
      57A      0.218510    58A      0.220396    59A      0.233284  
      60A      0.242455    61A      0.245471    62A      0.270025  
      63A      0.274905    64A      0.277727    65A      0.282004  
      66A      0.285063    67A      0.293664    68A      0.304064  
      69A      0.308371    70A      0.314299    71A      0.317084  
      72A      0.321938    73A      0.329828    74A      0.338570  
      75A      0.343796    76A      0.347063    77A      0.350007  
      78A      0.356623    79A      0.360461    80A      0.365165  
      81A      0.369406    82A      0.373795    83A      0.384117  
      84A      0.388985    85A      0.394498    86A      0.401348  
      87A      0.410832    88A      0.417050    89A      0.418923  
      90A      0.420922    91A      0.432779    92A      0.434915  
      93A      0.440861    94A      0.444190    95A      0.445421  
      96A      0.450182    97A      0.458169    98A      0.461712  
      99A      0.467925   100A      0.471634   101A      0.477492  
     102A      0.484083   103A      0.490217   104A      0.491338  
     105A      0.502851   106A      0.503482   107A      0.509093  
     108A      0.520966   109A      0.525711   110A      0.531665  
     111A      0.537408   112A      0.541135   113A      0.548319  
     114A      0.554915   115A      0.558716   116A      0.566447  
     117A      0.573069   118A      0.582898   119A      0.591366  
     120A      0.595464   121A      0.598584   122A      0.606211  
     123A      0.610196   124A      0.617565   125A      0.627880  
     126A      0.635284   127A      0.648154   128A      0.652036  
     129A      0.668067   130A      0.669582   131A      0.679979  
     132A      0.689809   133A      0.701230   134A      0.713885  
     135A      0.729575   136A      0.748619   137A      0.763311  
     138A      0.766907   139A      0.779735   140A      0.793551  
     141A      0.801200   142A      0.812877   143A      0.824815  
     144A      0.827169   145A      0.834907   146A      0.848607  
     147A      0.852895   148A      0.859643   149A      0.865904  
     150A      0.871069   151A      0.879197   152A      0.885733  
     153A      0.892564   154A      0.893857   155A      0.903262  
     156A      0.908948   157A      0.917851   158A      0.925239  
     159A      0.934571   160A      0.945052   161A      0.950680  
     162A      0.952909   163A      0.967603   164A      0.973004  
     165A      0.977471   166A      0.984721   167A      0.989945  
     168A      0.997784   169A      1.012760   170A      1.023773  
     171A      1.025960   172A      1.028354   173A      1.031139  
     174A      1.041877   175A      1.048709   176A      1.052167  
     177A      1.061564   178A      1.072485   179A      1.076060  
     180A      1.081008   181A      1.093943   182A      1.100912  
     183A      1.108018   184A      1.110783   185A      1.119086  
     186A      1.121913   187A      1.125146   188A      1.131998  
     189A      1.134965   190A      1.154399   191A      1.158187  
     192A      1.161943   193A      1.172358   194A      1.175793  
     195A      1.189820   196A      1.198274   197A      1.203691  
     198A      1.206997   199A      1.214402   200A      1.217288  
     201A      1.232752   202A      1.242977   203A      1.251152  
     204A      1.256636   205A      1.265419   206A      1.271451  
     207A      1.286098   208A      1.290772   209A      1.298986  
     210A      1.303858   211A      1.313137   212A      1.321222  
     213A      1.330222   214A      1.343510   215A      1.348872  
     216A      1.362593   217A      1.377175   218A      1.393684  
     219A      1.398797   220A      1.404273   221A      1.412945  
     222A      1.421126   223A      1.433447   224A      1.434825  
     225A      1.442443   226A      1.449103   227A      1.468451  
     228A      1.478507   229A      1.483608   230A      1.494401  
     231A      1.497427   232A      1.514145   233A      1.517705  
     234A      1.534700   235A      1.539362   236A      1.551244  
     237A      1.559247   238A      1.563568   239A      1.582528  
     240A      1.589636   241A      1.609984   242A      1.626527  
     243A      1.632971   244A      1.641677   245A      1.659192  
     246A      1.668072   247A      1.668249   248A      1.689233  
     249A      1.703581   250A      1.708753   251A      1.711406  
     252A      1.727835   253A      1.730330   254A      1.735392  
     255A      1.743422   256A      1.747257   257A      1.763367  
     258A      1.765866   259A      1.779979   260A      1.789739  
     261A      1.799180   262A      1.806074   263A      1.820702  
     264A      1.827013   265A      1.830546   266A      1.848324  
     267A      1.859684   268A      1.865852   269A      1.878625  
     270A      1.888192   271A      1.890871   272A      1.908115  
     273A      1.917381   274A      1.924333   275A      1.931566  
     276A      1.940528   277A      1.961941   278A      1.965436  
     279A      1.973383   280A      1.986601   281A      2.001249  
     282A      2.027077   283A      2.035469   284A      2.046122  
     285A      2.061606   286A      2.075443   287A      2.089780  
     288A      2.102250   289A      2.110073   290A      2.118104  
     291A      2.132369   292A      2.136031   293A      2.145227  
     294A      2.165832   295A      2.176991   296A      2.204741  
     297A      2.213047   298A      2.221661   299A      2.229329  
     300A      2.248216   301A      2.251977   302A      2.273345  
     303A      2.288031   304A      2.295286   305A      2.300846  
     306A      2.326809   307A      2.365170   308A      2.377933  
     309A      2.396042   310A      2.418221   311A      2.425065  
     312A      2.451323   313A      2.466516   314A      2.477881  
     315A      2.489239   316A      2.496469   317A      2.513498  
     318A      2.558728   319A      2.589202   320A      2.593205  
     321A      2.616090   322A      2.655813   323A      2.685533  
     324A      2.713596   325A      2.743137   326A      2.754562  
     327A      2.776448   328A      2.792481   329A      2.862089  
     330A      2.866016   331A      2.878512   332A      2.904546  
     333A      2.911894   334A      2.944942   335A      2.953762  
     336A      2.961967   337A      3.002580   338A      3.014489  
     339A      3.036781   340A      3.049987   341A      3.062424  
     342A      3.086444   343A      3.110107   344A      3.146422  
     345A      3.166825   346A      3.205086   347A      3.211720  
     348A      3.262002   349A      3.315748   350A      3.354854  
     351A      3.375298   352A      3.412681   353A      3.456702  
     354A      3.470558   355A      3.493958   356A      3.515767  
     357A      3.539280   358A      3.550420   359A      3.554002  
     360A      3.575568   361A      3.609159   362A      3.640607  
     363A      3.664970   364A      3.681145   365A      3.696156  
     366A      3.708320   367A      3.722193   368A      3.727537  
     369A      3.738800   370A      3.751242   371A      3.765989  
     372A      3.773668   373A      3.786720   374A      3.794572  
     375A      3.802095   376A      3.827594   377A      3.833323  
     378A      3.837553   379A      3.860130   380A      3.865122  
     381A      3.901673   382A      3.910392   383A      3.934413  
     384A      3.950274   385A      3.963410   386A      3.974775  
     387A      3.981011   388A      3.999209   389A      4.008409  
     390A      4.017389   391A      4.036299   392A      4.049638  
     393A      4.063895   394A      4.069339   395A      4.072684  
     396A      4.099047   397A      4.108997   398A      4.124715  
     399A      4.147972   400A      4.157421   401A      4.163310  
     402A      4.165843   403A      4.185260   404A      4.209170  
     405A      4.218036   406A      4.228658   407A      4.236265  
     408A      4.256244   409A      4.263943   410A      4.285805  
     411A      4.300374   412A      4.314104   413A      4.336107  
     414A      4.355995   415A      4.379299   416A      4.387400  
     417A      4.404242   418A      4.425170   419A      4.445878  
     420A      4.459627   421A      4.500365   422A      4.508623  
     423A      4.521785   424A      4.549843   425A      4.573686  
     426A      4.602449   427A      4.607596   428A      4.617188  
     429A      4.627691   430A      4.631295   431A      4.647436  
     432A      4.655110   433A      4.680720   434A      4.689487  
     435A      4.713647   436A      4.734810   437A      4.747804  
     438A      4.772392   439A      4.802339   440A      4.817391  
     441A      4.823832   442A      4.856847   443A      4.873825  
     444A      4.896408   445A      4.899606   446A      4.905251  
     447A      4.921223   448A      4.933129   449A      4.945530  
     450A      4.954184   451A      4.972151   452A      4.996701  
     453A      5.006716   454A      5.019657   455A      5.039834  
     456A      5.050230   457A      5.067137   458A      5.075764  
     459A      5.102278   460A      5.119712   461A      5.143634  
     462A      5.152033   463A      5.166514   464A      5.185805  
     465A      5.213786   466A      5.229649   467A      5.242345  
     468A      5.268372   469A      5.272271   470A      5.280652  
     471A      5.311425   472A      5.338712   473A      5.376548  
     474A      5.400575   475A      5.407726   476A      5.425804  
     477A      5.442603   478A      5.457056   479A      5.499841  
     480A      5.517650   481A      5.540173   482A      5.572012  
     483A      5.578794   484A      5.587949   485A      5.592619  
     486A      5.618085   487A      5.640985   488A      5.650485  
     489A      5.662542   490A      5.688507   491A      5.720623  
     492A      5.729917   493A      5.737799   494A      5.762332  
     495A      5.811285   496A      5.840145   497A      5.881550  
     498A      5.916430   499A      6.016493   500A      6.031155  
     501A      6.080168   502A      6.115145   503A      6.127644  
     504A      6.177950   505A      6.223576   506A      6.241902  
     507A      6.252591   508A      6.276098   509A      6.295982  
     510A      6.304325   511A      6.325796   512A      6.357821  
     513A      6.422262   514A      6.468229   515A      6.695511  
     516A      6.718853   517A      6.784955   518A      6.816599  
     519A      6.819402   520A      6.874611   521A      6.897979  
     522A      6.922714   523A      6.993165   524A      7.015024  
     525A      7.032871   526A      7.054302   527A      7.186413  
     528A      7.212803   529A      7.377419   530A      7.385119  
     531A      7.410531   532A      7.417958   533A      7.516748  
     534A      7.535613   535A      7.546133   536A      7.555391  
     537A      7.664484   538A      7.680923   539A      7.886837  
     540A      7.905867   541A      7.954568   542A      7.968801  
     543A      8.270716   544A      8.277753   545A      8.644086  
     546A      8.674799   547A     16.342237   548A     16.555022  
     549A     17.922280   550A     17.956413   551A     18.796803  
     552A     18.975865  

    Final Occupation by Irrep:
              A 
    DOCC [    26 ]
    NA   [    26 ]
    NB   [    26 ]

  @DF-RHF Final Energy:  -308.28816272989008

   => Energetics <=

    Nuclear Repulsion Energy =            257.7048417033644228
    One-Electron Energy =                -931.4875928639187350
    Two-Electron Energy =                 365.4945884306642370
    Total Energy =                       -308.2881627298900753

Computation Completed


Properties will be evaluated at   0.000000,   0.000000,   0.000000 [a0]

Properties computed using the SCF density matrix


 Multipole Moments:

 ------------------------------------------------------------------------------------
     Multipole            Electronic (a.u.)      Nuclear  (a.u.)        Total (a.u.)
 ------------------------------------------------------------------------------------

 L = 1.  Multiply by 2.5417464519 to convert [e a0] to [Debye]
 Dipole X            :          0.0011900            0.0000000            0.0011900
 Dipole Y            :          0.0522678            0.0000094            0.0522773
 Dipole Z            :          0.2011575            0.0000113            0.2011688
 Magnitude           :                                                    0.2078538

 ------------------------------------------------------------------------------------

*** tstop() called on moses-razer at Sun Mar  2 08:02:41 2025
Module time:
	user time   =     174.59 seconds =       2.91 minutes
	system time =       3.56 seconds =       0.06 minutes
	total time  =        178 seconds =       2.97 minutes
Total time:
	user time   =     174.59 seconds =       2.91 minutes
	system time =       3.56 seconds =       0.06 minutes
	total time  =        178 seconds =       2.97 minutes

  //>>>>>>>>>>>>>>>>>>>>>>>>>>>>>>>>>>>//
  //            Monomer A HF           //
  //<<<<<<<<<<<<<<<<<<<<<<<<<<<<<<<<<<<//

   => Libint2 <=

    Primary   basis highest AM E, G, H:  5, 4, 3
    Auxiliary basis highest AM E, G, H:  6, 5, 4
    Onebody   basis highest AM E, G, H:  6, 5, 4
    Solid Harmonics ordering:            gaussian

*** tstart() called on moses-razer
*** at Sun Mar  2 08:02:41 2025

   => Loading Basis Set <=

    Name: AUG-CC-PVTZ
    Role: ORBITAL
    Keyword: BASIS
    atoms 1-2, 10-11 entry C          line   239 file /home/kchung25/anaconda3/envs/p415env/share/psi4/basis/aug-cc-pvtz.gbs 
    atoms 3, 12      entry O          line   331 file /home/kchung25/anaconda3/envs/p415env/share/psi4/basis/aug-cc-pvtz.gbs 
    atoms 4-9, 13-18 entry H          line    40 file /home/kchung25/anaconda3/envs/p415env/share/psi4/basis/aug-cc-pvtz.gbs 


         ---------------------------------------------------------
                                   SCF
               by Justin Turney, Rob Parrish, Andy Simmonett
                          and Daniel G. A. Smith
                              RHF Reference
                        1 Threads,   9536 MiB Core
         ---------------------------------------------------------

  ==> Geometry <==

    Molecular point group: c1
    Full point group: C1

    Geometry (in Angstrom), charge = 0, multiplicity = 1:

       Center              X                  Y                   Z               Mass       
    ------------   -----------------  -----------------  -----------------  -----------------
         C           -1.622156000000    -1.034011000000     0.723606000000    12.000000000000
         C           -1.747571000000    -0.191969000000    -0.519332000000    12.000000000000
         O           -1.849541000000     1.187285000000    -0.228957000000    15.994914619570
         H           -2.586585000000     1.315770000000     0.373451000000     1.007825032230
         H           -1.465242000000    -2.084267000000     0.470869000000     1.007825032230
         H           -2.522520000000    -0.965561000000     1.342356000000     1.007825032230
         H           -0.772502000000    -0.698902000000     1.323255000000     1.007825032230
         H           -2.601103000000    -0.525898000000    -1.126410000000     1.007825032230
         H           -0.849120000000    -0.305686000000    -1.130386000000     1.007825032230
      Gh(C)           1.641844000000     1.231324000000     0.240183000000    12.000000000000
      Gh(C)           2.023378000000    -0.218832000000     0.397284000000    12.000000000000
      Gh(O)           1.571823000000    -1.020440000000    -0.674060000000    15.994914619570
      Gh(H)           1.922783000000    -0.653804000000    -1.489878000000     1.007825032230
      Gh(H)           1.995956000000     1.821418000000     1.088424000000     1.007825032230
      Gh(H)           0.557513000000     1.350763000000     0.164426000000     1.007825032230
      Gh(H)           2.093802000000     1.653399000000    -0.662995000000     1.007825032230
      Gh(H)           1.564837000000    -0.641555000000     1.296139000000     1.007825032230
      Gh(H)           3.110955000000    -0.319504000000     0.524445000000     1.007825032230

  Running in c1 symmetry.

  Rotational constants: A =      0.14016  B =      0.05186  C =      0.04434 [cm^-1]
  Rotational constants: A =   4201.83771  B =   1554.74550  C =   1329.37904 [MHz]
  Nuclear repulsion =   82.133314795226809

  Charge       = 0
  Multiplicity = 1
  Electrons    = 26
  Nalpha       = 13
  Nbeta        = 13

  ==> Algorithm <==

  SCF Algorithm Type is DF.
  DIIS enabled.
  MOM disabled.
  Fractional occupation disabled.
  Guess Type is SAD.
  Energy threshold   = 1.00e-08
  Density threshold  = 1.00e-08
  Integral threshold = 1.00e-12

  ==> Primary Basis <==

  Basis Set: AUG-CC-PVTZ
    Blend: AUG-CC-PVTZ
    Number of shells: 192
    Number of basis functions: 552
    Number of Cartesian functions: 630
    Spherical Harmonics?: true
    Max angular momentum: 3

   => Loading Basis Set <=

    Name: (AUG-CC-PVTZ AUX)
    Role: JKFIT
    Keyword: DF_BASIS_SCF
    atoms 1-2, 10-11 entry C          line   162 file /home/kchung25/anaconda3/envs/p415env/share/psi4/basis/aug-cc-pvtz-jkfit.gbs 
    atoms 3, 12      entry O          line   286 file /home/kchung25/anaconda3/envs/p415env/share/psi4/basis/aug-cc-pvtz-jkfit.gbs 
    atoms 4-9, 13-18 entry H          line    70 file /home/kchung25/anaconda3/envs/p415env/share/psi4/basis/aug-cc-pvtz-jkfit.gbs 

  ==> Integral Setup <==

  ==> DiskDFJK: Density-Fitted J/K Matrices <==

    J tasked:                  Yes
    K tasked:                  Yes
    wK tasked:                  No
    OpenMP threads:              1
    Integrals threads:           1
    Memory [MiB]:             7152
    Algorithm:                Core
    Integral Cache:           LOAD
    Schwarz Cutoff:          1E-12
    Fitting Condition:       1E-10

   => Auxiliary Basis Set <=

  Basis Set: (AUG-CC-PVTZ AUX)
    Blend: AUG-CC-PVTZ-JKFIT
    Number of shells: 348
    Number of basis functions: 1176
    Number of Cartesian functions: 1446
    Spherical Harmonics?: true
    Max angular momentum: 4

  Minimum eigenvalue in the overlap matrix is 5.5949001546E-06.
  Reciprocal condition number of the overlap matrix is 2.8971332624E-07.
    Using symmetric orthogonalization.

  ==> Pre-Iterations <==

  SCF Guess: Superposition of Atomic Densities via on-the-fly atomic UHF (no occupation information).

   -------------------------
    Irrep   Nso     Nmo    
   -------------------------
     A        552     552 
   -------------------------
    Total     552     552
   -------------------------

  ==> Iterations <==

                           Total Energy        Delta E     RMS |[F,P]|

   @DF-RHF iter SAD:  -153.45442133365270   -1.53454e+02   0.00000e+00 
   @DF-RHF iter   1:  -154.00361896621891   -5.49198e-01   9.37195e-04 ADIIS/DIIS
   @DF-RHF iter   2:  -154.11542024621312   -1.11801e-01   4.94770e-04 ADIIS/DIIS
   @DF-RHF iter   3:  -154.14327972427677   -2.78595e-02   8.38839e-05 DIIS
   @DF-RHF iter   4:  -154.14485507770158   -1.57535e-03   3.21336e-05 DIIS
   @DF-RHF iter   5:  -154.14504160847773   -1.86531e-04   6.21896e-06 DIIS
   @DF-RHF iter   6:  -154.14505190572956   -1.02973e-05   1.42589e-06 DIIS
   @DF-RHF iter   7:  -154.14505264419091   -7.38461e-07   4.05001e-07 DIIS
   @DF-RHF iter   8:  -154.14505269944149   -5.52506e-08   1.28665e-07 DIIS
   @DF-RHF iter   9:  -154.14505270562233   -6.18084e-09   3.30632e-08 DIIS
   @DF-RHF iter  10:  -154.14505270605665   -4.34312e-10   6.30240e-09 DIIS
  Energy and wave function converged.


  ==> Post-Iterations <==

    Orbital Energies [Eh]
    ---------------------

    Doubly Occupied:                                                      

       1A    -20.555240     2A    -11.273503     3A    -11.218537  
       4A     -1.360900     5A     -1.015246     6A     -0.848174  
       7A     -0.685870     8A     -0.625813     9A     -0.613974  
      10A     -0.542607    11A     -0.526438    12A     -0.481458  
      13A     -0.443357  

    Virtual:                                                              

      14A      0.024107    15A      0.032003    16A      0.035495  
      17A      0.038874    18A      0.051609    19A      0.052340  
      20A      0.055702    21A      0.061326    22A      0.066417  
      23A      0.082329    24A      0.083957    25A      0.086308  
      26A      0.096313    27A      0.106799    28A      0.109188  
      29A      0.119444    30A      0.121258    31A      0.121747  
      32A      0.127678    33A      0.143709    34A      0.144957  
      35A      0.153536    36A      0.154172    37A      0.163319  
      38A      0.165598    39A      0.169618    40A      0.181736  
      41A      0.184660    42A      0.190174    43A      0.200349  
      44A      0.208966    45A      0.215441    46A      0.229358  
      47A      0.234056    48A      0.245228    49A      0.248918  
      50A      0.264536    51A      0.267183    52A      0.272731  
      53A      0.281587    54A      0.289771    55A      0.302114  
      56A      0.305708    57A      0.310799    58A      0.315546  
      59A      0.318804    60A      0.321293    61A      0.332336  
      62A      0.334621    63A      0.340806    64A      0.349322  
      65A      0.351356    66A      0.354320    67A      0.360207  
      68A      0.362344    69A      0.370231    70A      0.373910  
      71A      0.382282    72A      0.387084    73A      0.396811  
      74A      0.401735    75A      0.410409    76A      0.412535  
      77A      0.419743    78A      0.426549    79A      0.428505  
      80A      0.433353    81A      0.442174    82A      0.446826  
      83A      0.453211    84A      0.458602    85A      0.468470  
      86A      0.474439    87A      0.476987    88A      0.480708  
      89A      0.486030    90A      0.489034    91A      0.494949  
      92A      0.501693    93A      0.510265    94A      0.514800  
      95A      0.521485    96A      0.522619    97A      0.530990  
      98A      0.540237    99A      0.549406   100A      0.553611  
     101A      0.562332   102A      0.572527   103A      0.582182  
     104A      0.589247   105A      0.599071   106A      0.604585  
     107A      0.606492   108A      0.618547   109A      0.620828  
     110A      0.623792   111A      0.632738   112A      0.638057  
     113A      0.645325   114A      0.653784   115A      0.660245  
     116A      0.670298   117A      0.680982   118A      0.685235  
     119A      0.696956   120A      0.704455   121A      0.714988  
     122A      0.725178   123A      0.733274   124A      0.735582  
     125A      0.743734   126A      0.760741   127A      0.783730  
     128A      0.794138   129A      0.802587   130A      0.807250  
     131A      0.823821   132A      0.828520   133A      0.839068  
     134A      0.856694   135A      0.860187   136A      0.869659  
     137A      0.877565   138A      0.889128   139A      0.899896  
     140A      0.904880   141A      0.910128   142A      0.924873  
     143A      0.930263   144A      0.935306   145A      0.945130  
     146A      0.957678   147A      0.966787   148A      0.973354  
     149A      0.978393   150A      0.991990   151A      0.997298  
     152A      1.003791   153A      1.013870   154A      1.020670  
     155A      1.026147   156A      1.038680   157A      1.047615  
     158A      1.053789   159A      1.061611   160A      1.066732  
     161A      1.074263   162A      1.078304   163A      1.085055  
     164A      1.085520   165A      1.097252   166A      1.099258  
     167A      1.104774   168A      1.110307   169A      1.123843  
     170A      1.129432   171A      1.133088   172A      1.138998  
     173A      1.145003   174A      1.151154   175A      1.160594  
     176A      1.164781   177A      1.172908   178A      1.182136  
     179A      1.191239   180A      1.197357   181A      1.212355  
     182A      1.215597   183A      1.219960   184A      1.227843  
     185A      1.235790   186A      1.242534   187A      1.247149  
     188A      1.256809   189A      1.259226   190A      1.262045  
     191A      1.277042   192A      1.282373   193A      1.288852  
     194A      1.301238   195A      1.302301   196A      1.319136  
     197A      1.321586   198A      1.333008   199A      1.349518  
     200A      1.355876   201A      1.359055   202A      1.367610  
     203A      1.382243   204A      1.397496   205A      1.400575  
     206A      1.408571   207A      1.412985   208A      1.421786  
     209A      1.428013   210A      1.436431   211A      1.452507  
     212A      1.463644   213A      1.469191   214A      1.470567  
     215A      1.475124   216A      1.496394   217A      1.503161  
     218A      1.521750   219A      1.525812   220A      1.529542  
     221A      1.542638   222A      1.556735   223A      1.558643  
     224A      1.569267   225A      1.584953   226A      1.588433  
     227A      1.596750   228A      1.610387   229A      1.620992  
     230A      1.633279   231A      1.641326   232A      1.654040  
     233A      1.666571   234A      1.686610   235A      1.691168  
     236A      1.698276   237A      1.703724   238A      1.727638  
     239A      1.736778   240A      1.753041   241A      1.756154  
     242A      1.759619   243A      1.778756   244A      1.785806  
     245A      1.796164   246A      1.809465   247A      1.812082  
     248A      1.830560   249A      1.834637   250A      1.842103  
     251A      1.861725   252A      1.864950   253A      1.875156  
     254A      1.883713   255A      1.890517   256A      1.914166  
     257A      1.919130   258A      1.945005   259A      1.952631  
     260A      1.962164   261A      1.980933   262A      1.988680  
     263A      2.006493   264A      2.010046   265A      2.023620  
     266A      2.036865   267A      2.048805   268A      2.067577  
     269A      2.079224   270A      2.083374   271A      2.090067  
     272A      2.098894   273A      2.111293   274A      2.123167  
     275A      2.138631   276A      2.154946   277A      2.164079  
     278A      2.178720   279A      2.187956   280A      2.207063  
     281A      2.218807   282A      2.238323   283A      2.248823  
     284A      2.252283   285A      2.265039   286A      2.274327  
     287A      2.278456   288A      2.289541   289A      2.295675  
     290A      2.313219   291A      2.328733   292A      2.352098  
     293A      2.376860   294A      2.404298   295A      2.420983  
     296A      2.450989   297A      2.459870   298A      2.476639  
     299A      2.492528   300A      2.498518   301A      2.518251  
     302A      2.545396   303A      2.563811   304A      2.582642  
     305A      2.607613   306A      2.620297   307A      2.642200  
     308A      2.659956   309A      2.684188   310A      2.701143  
     311A      2.724739   312A      2.745852   313A      2.763058  
     314A      2.769626   315A      2.779407   316A      2.814343  
     317A      2.848297   318A      2.857605   319A      2.879078  
     320A      2.883254   321A      2.904495   322A      2.932141  
     323A      2.953019   324A      2.967840   325A      2.996858  
     326A      3.027475   327A      3.044234   328A      3.054247  
     329A      3.089309   330A      3.117722   331A      3.143679  
     332A      3.179370   333A      3.184212   334A      3.211869  
     335A      3.247297   336A      3.285816   337A      3.287679  
     338A      3.318820   339A      3.367424   340A      3.402783  
     341A      3.432632   342A      3.468214   343A      3.512056  
     344A      3.525453   345A      3.525937   346A      3.538097  
     347A      3.588773   348A      3.605477   349A      3.649472  
     350A      3.680699   351A      3.689737   352A      3.706812  
     353A      3.729158   354A      3.748805   355A      3.764890  
     356A      3.798002   357A      3.800681   358A      3.836244  
     359A      3.848017   360A      3.874225   361A      3.916690  
     362A      3.923163   363A      3.959679   364A      3.967809  
     365A      3.988323   366A      4.004445   367A      4.026250  
     368A      4.035560   369A      4.047856   370A      4.065280  
     371A      4.086806   372A      4.124665   373A      4.137494  
     374A      4.157740   375A      4.172893   376A      4.180336  
     377A      4.196390   378A      4.200456   379A      4.225911  
     380A      4.233837   381A      4.240998   382A      4.261577  
     383A      4.266802   384A      4.287529   385A      4.316961  
     386A      4.335158   387A      4.358919   388A      4.373458  
     389A      4.377060   390A      4.390840   391A      4.427314  
     392A      4.450035   393A      4.472123   394A      4.480109  
     395A      4.491265   396A      4.526284   397A      4.534023  
     398A      4.549939   399A      4.572565   400A      4.586192  
     401A      4.594401   402A      4.607298   403A      4.626151  
     404A      4.630849   405A      4.638945   406A      4.662558  
     407A      4.675053   408A      4.679208   409A      4.705720  
     410A      4.723426   411A      4.734494   412A      4.745942  
     413A      4.757052   414A      4.804686   415A      4.811807  
     416A      4.836317   417A      4.853398   418A      4.867336  
     419A      4.879285   420A      4.889233   421A      4.896914  
     422A      4.911280   423A      4.925977   424A      4.943284  
     425A      4.975955   426A      4.992110   427A      5.005060  
     428A      5.028346   429A      5.038477   430A      5.044293  
     431A      5.053759   432A      5.074580   433A      5.084560  
     434A      5.097127   435A      5.122238   436A      5.127998  
     437A      5.152120   438A      5.168520   439A      5.193848  
     440A      5.199073   441A      5.228479   442A      5.246775  
     443A      5.262693   444A      5.273039   445A      5.299005  
     446A      5.303526   447A      5.367822   448A      5.377895  
     449A      5.400970   450A      5.412309   451A      5.429475  
     452A      5.439332   453A      5.446376   454A      5.466731  
     455A      5.482594   456A      5.539688   457A      5.558001  
     458A      5.568263   459A      5.573026   460A      5.589926  
     461A      5.600575   462A      5.612404   463A      5.619635  
     464A      5.650838   465A      5.662945   466A      5.668149  
     467A      5.699848   468A      5.723803   469A      5.730984  
     470A      5.749817   471A      5.779642   472A      5.794326  
     473A      5.805441   474A      5.817467   475A      5.850970  
     476A      5.885874   477A      5.907247   478A      5.996338  
     479A      6.031673   480A      6.032868   481A      6.081358  
     482A      6.110316   483A      6.131697   484A      6.140926  
     485A      6.212625   486A      6.224003   487A      6.237123  
     488A      6.273908   489A      6.279227   490A      6.303400  
     491A      6.304777   492A      6.408931   493A      6.445106  
     494A      6.490250   495A      6.506870   496A      6.701632  
     497A      6.780893   498A      6.809420   499A      6.838812  
     500A      6.882279   501A      6.919919   502A      6.989725  
     503A      6.999900   504A      7.020808   505A      7.061919  
     506A      7.107745   507A      7.155359   508A      7.196350  
     509A      7.239578   510A      7.370531   511A      7.382957  
     512A      7.417038   513A      7.522946   514A      7.538704  
     515A      7.669647   516A      7.786827   517A      7.820050  
     518A      7.857144   519A      7.865599   520A      7.903852  
     521A      7.932907   522A      7.935427   523A      7.977707  
     524A      8.039431   525A      8.149169   526A      8.212636  
     527A      8.283054   528A      8.305578   529A      8.312662  
     530A      8.377013   531A      8.431737   532A      8.592071  
     533A      8.667250   534A      8.951171   535A      9.053497  
     536A     10.033143   537A     10.124439   538A     10.260792  
     539A     10.412006   540A     10.701744   541A     10.770802  
     542A     11.060035   543A     12.092613   544A     12.497538  
     545A     13.320805   546A     14.137951   547A     16.353730  
     548A     17.944324   549A     18.795882   550A     53.095450  
     551A     55.105408   552A     67.306344  

    Final Occupation by Irrep:
              A 
    DOCC [    13 ]
    NA   [    13 ]
    NB   [    13 ]

  @DF-RHF Final Energy:  -154.14505270605665

   => Energetics <=

    Nuclear Repulsion Energy =             82.1333147952268092
    One-Electron Energy =                -372.1745000988379957
    Two-Electron Energy =                 135.8961325975545549
    Total Energy =                       -154.1450527060566458

Computation Completed


Properties will be evaluated at   0.000000,   0.000000,   0.000000 [a0]

Properties computed using the SCF density matrix


 Multipole Moments:

 ------------------------------------------------------------------------------------
     Multipole            Electronic (a.u.)      Nuclear  (a.u.)        Total (a.u.)
 ------------------------------------------------------------------------------------

 L = 1.  Multiply by 2.5417464519 to convert [e a0] to [Debye]
 Dipole X            :         86.1972437          -86.5716835           -0.3744398
 Dipole Y            :          1.5733915           -2.1205448           -0.5471533
 Dipole Z            :         -0.9544833            1.2228852            0.2684019
 Magnitude           :                                                    0.7152772

 ------------------------------------------------------------------------------------

*** tstop() called on moses-razer at Sun Mar  2 08:05:01 2025
Module time:
	user time   =     138.43 seconds =       2.31 minutes
	system time =       2.02 seconds =       0.03 minutes
	total time  =        140 seconds =       2.33 minutes
Total time:
	user time   =     313.03 seconds =       5.22 minutes
	system time =       5.58 seconds =       0.09 minutes
	total time  =        318 seconds =       5.30 minutes

  //>>>>>>>>>>>>>>>>>>>>>>>>>>>>>>>>>>>//
  //            Monomer B HF           //
  //<<<<<<<<<<<<<<<<<<<<<<<<<<<<<<<<<<<//

   => Libint2 <=

    Primary   basis highest AM E, G, H:  5, 4, 3
    Auxiliary basis highest AM E, G, H:  6, 5, 4
    Onebody   basis highest AM E, G, H:  6, 5, 4
    Solid Harmonics ordering:            gaussian

*** tstart() called on moses-razer
*** at Sun Mar  2 08:05:01 2025

   => Loading Basis Set <=

    Name: AUG-CC-PVTZ
    Role: ORBITAL
    Keyword: BASIS
    atoms 1-2, 10-11 entry C          line   239 file /home/kchung25/anaconda3/envs/p415env/share/psi4/basis/aug-cc-pvtz.gbs 
    atoms 3, 12      entry O          line   331 file /home/kchung25/anaconda3/envs/p415env/share/psi4/basis/aug-cc-pvtz.gbs 
    atoms 4-9, 13-18 entry H          line    40 file /home/kchung25/anaconda3/envs/p415env/share/psi4/basis/aug-cc-pvtz.gbs 


         ---------------------------------------------------------
                                   SCF
               by Justin Turney, Rob Parrish, Andy Simmonett
                          and Daniel G. A. Smith
                              RHF Reference
                        1 Threads,   9536 MiB Core
         ---------------------------------------------------------

  ==> Geometry <==

    Molecular point group: c1
    Full point group: C1

    Geometry (in Angstrom), charge = 0, multiplicity = 1:

       Center              X                  Y                   Z               Mass       
    ------------   -----------------  -----------------  -----------------  -----------------
      Gh(C)          -1.622156000000    -1.034011000000     0.723606000000    12.000000000000
      Gh(C)          -1.747571000000    -0.191969000000    -0.519332000000    12.000000000000
      Gh(O)          -1.849541000000     1.187285000000    -0.228957000000    15.994914619570
      Gh(H)          -2.586585000000     1.315770000000     0.373451000000     1.007825032230
      Gh(H)          -1.465242000000    -2.084267000000     0.470869000000     1.007825032230
      Gh(H)          -2.522520000000    -0.965561000000     1.342356000000     1.007825032230
      Gh(H)          -0.772502000000    -0.698902000000     1.323255000000     1.007825032230
      Gh(H)          -2.601103000000    -0.525898000000    -1.126410000000     1.007825032230
      Gh(H)          -0.849120000000    -0.305686000000    -1.130386000000     1.007825032230
         C            1.641844000000     1.231324000000     0.240183000000    12.000000000000
         C            2.023378000000    -0.218832000000     0.397284000000    12.000000000000
         O            1.571823000000    -1.020440000000    -0.674060000000    15.994914619570
         H            1.922783000000    -0.653804000000    -1.489878000000     1.007825032230
         H            1.995956000000     1.821418000000     1.088424000000     1.007825032230
         H            0.557513000000     1.350763000000     0.164426000000     1.007825032230
         H            2.093802000000     1.653399000000    -0.662995000000     1.007825032230
         H            1.564837000000    -0.641555000000     1.296139000000     1.007825032230
         H            3.110955000000    -0.319504000000     0.524445000000     1.007825032230

  Running in c1 symmetry.

  Rotational constants: A =      0.14016  B =      0.05186  C =      0.04434 [cm^-1]
  Rotational constants: A =   4201.83771  B =   1554.74550  C =   1329.37904 [MHz]
  Nuclear repulsion =   82.083245800687180

  Charge       = 0
  Multiplicity = 1
  Electrons    = 26
  Nalpha       = 13
  Nbeta        = 13

  ==> Algorithm <==

  SCF Algorithm Type is DF.
  DIIS enabled.
  MOM disabled.
  Fractional occupation disabled.
  Guess Type is SAD.
  Energy threshold   = 1.00e-08
  Density threshold  = 1.00e-08
  Integral threshold = 1.00e-12

  ==> Primary Basis <==

  Basis Set: AUG-CC-PVTZ
    Blend: AUG-CC-PVTZ
    Number of shells: 192
    Number of basis functions: 552
    Number of Cartesian functions: 630
    Spherical Harmonics?: true
    Max angular momentum: 3

   => Loading Basis Set <=

    Name: (AUG-CC-PVTZ AUX)
    Role: JKFIT
    Keyword: DF_BASIS_SCF
    atoms 1-2, 10-11 entry C          line   162 file /home/kchung25/anaconda3/envs/p415env/share/psi4/basis/aug-cc-pvtz-jkfit.gbs 
    atoms 3, 12      entry O          line   286 file /home/kchung25/anaconda3/envs/p415env/share/psi4/basis/aug-cc-pvtz-jkfit.gbs 
    atoms 4-9, 13-18 entry H          line    70 file /home/kchung25/anaconda3/envs/p415env/share/psi4/basis/aug-cc-pvtz-jkfit.gbs 

  ==> Integral Setup <==

  ==> DiskDFJK: Density-Fitted J/K Matrices <==

    J tasked:                  Yes
    K tasked:                  Yes
    wK tasked:                  No
    OpenMP threads:              1
    Integrals threads:           1
    Memory [MiB]:             7152
    Algorithm:                Core
    Integral Cache:           LOAD
    Schwarz Cutoff:          1E-12
    Fitting Condition:       1E-10

   => Auxiliary Basis Set <=

  Basis Set: (AUG-CC-PVTZ AUX)
    Blend: AUG-CC-PVTZ-JKFIT
    Number of shells: 348
    Number of basis functions: 1176
    Number of Cartesian functions: 1446
    Spherical Harmonics?: true
    Max angular momentum: 4

  Minimum eigenvalue in the overlap matrix is 5.5949001548E-06.
  Reciprocal condition number of the overlap matrix is 2.8971332624E-07.
    Using symmetric orthogonalization.

  ==> Pre-Iterations <==

  SCF Guess: Superposition of Atomic Densities via on-the-fly atomic UHF (no occupation information).

   -------------------------
    Irrep   Nso     Nmo    
   -------------------------
     A        552     552 
   -------------------------
    Total     552     552
   -------------------------

  ==> Iterations <==

                           Total Energy        Delta E     RMS |[F,P]|

   @DF-RHF iter SAD:  -153.45123122290249   -1.53451e+02   0.00000e+00 
   @DF-RHF iter   1:  -154.00369055459436   -5.52459e-01   9.36673e-04 ADIIS/DIIS
   @DF-RHF iter   2:  -154.11536851055692   -1.11678e-01   4.95426e-04 ADIIS/DIIS
   @DF-RHF iter   3:  -154.14329992504446   -2.79314e-02   8.38637e-05 DIIS
   @DF-RHF iter   4:  -154.14487763808717   -1.57771e-03   3.21101e-05 DIIS
   @DF-RHF iter   5:  -154.14506400223985   -1.86364e-04   6.21821e-06 DIIS
   @DF-RHF iter   6:  -154.14507427277033   -1.02705e-05   1.42139e-06 DIIS
   @DF-RHF iter   7:  -154.14507500281707   -7.30047e-07   4.04076e-07 DIIS
   @DF-RHF iter   8:  -154.14507505729745   -5.44804e-08   1.27878e-07 DIIS
   @DF-RHF iter   9:  -154.14507506341278   -6.11533e-09   3.29004e-08 DIIS
   @DF-RHF iter  10:  -154.14507506384325   -4.30475e-10   6.28976e-09 DIIS
  Energy and wave function converged.


  ==> Post-Iterations <==

    Orbital Energies [Eh]
    ---------------------

    Doubly Occupied:                                                      

       1A    -20.555332     2A    -11.273737     3A    -11.219142  
       4A     -1.361288     5A     -1.014548     6A     -0.848481  
       7A     -0.686310     8A     -0.625240     9A     -0.612069  
      10A     -0.544944    11A     -0.525918    12A     -0.481009  
      13A     -0.443246  

    Virtual:                                                              

      14A      0.024672    15A      0.032797    16A      0.035324  
      17A      0.038582    18A      0.050419    19A      0.053449  
      20A      0.056221    21A      0.062559    22A      0.064518  
      23A      0.078129    24A      0.082594    25A      0.086306  
      26A      0.100598    27A      0.109546    28A      0.111789  
      29A      0.117184    30A      0.120135    31A      0.126404  
      32A      0.127787    33A      0.141307    34A      0.147912  
      35A      0.151622    36A      0.156738    37A      0.162010  
      38A      0.163030    39A      0.170835    40A      0.177015  
      41A      0.183565    42A      0.191898    43A      0.199793  
      44A      0.203759    45A      0.218646    46A      0.226799  
      47A      0.232293    48A      0.248814    49A      0.255496  
      50A      0.264573    51A      0.267645    52A      0.273562  
      53A      0.288179    54A      0.293447    55A      0.300951  
      56A      0.303935    57A      0.308482    58A      0.312161  
      59A      0.317586    60A      0.331140    61A      0.336909  
      62A      0.339103    63A      0.341029    64A      0.347246  
      65A      0.352843    66A      0.353481    67A      0.359351  
      68A      0.360617    69A      0.364950    70A      0.374320  
      71A      0.379046    72A      0.388587    73A      0.392637  
      74A      0.398582    75A      0.403880    76A      0.419563  
      77A      0.420068    78A      0.429289    79A      0.433379  
      80A      0.437409    81A      0.440294    82A      0.448317  
      83A      0.456541    84A      0.462346    85A      0.463915  
      86A      0.467998    87A      0.475181    88A      0.481176  
      89A      0.489471    90A      0.492405    91A      0.494175  
      92A      0.502601    93A      0.515651    94A      0.523088  
      95A      0.530714    96A      0.533578    97A      0.535031  
      98A      0.542072    99A      0.545626   100A      0.554070  
     101A      0.557129   102A      0.558959   103A      0.579894  
     104A      0.585083   105A      0.591189   106A      0.596586  
     107A      0.607661   108A      0.612665   109A      0.618748  
     110A      0.635114   111A      0.635964   112A      0.641751  
     113A      0.643511   114A      0.652614   115A      0.662290  
     116A      0.672580   117A      0.674588   118A      0.686872  
     119A      0.689887   120A      0.697292   121A      0.708431  
     122A      0.725679   123A      0.730804   124A      0.745235  
     125A      0.752636   126A      0.768728   127A      0.788601  
     128A      0.798442   129A      0.807392   130A      0.824499  
     131A      0.826887   132A      0.835204   133A      0.846871  
     134A      0.855090   135A      0.858755   136A      0.866974  
     137A      0.876660   138A      0.883375   139A      0.892019  
     140A      0.899796   141A      0.910808   142A      0.925482  
     143A      0.929869   144A      0.941172   145A      0.943202  
     146A      0.952331   147A      0.966084   148A      0.969732  
     149A      0.978688   150A      0.984473   151A      0.995551  
     152A      1.001828   153A      1.006282   154A      1.021694  
     155A      1.031203   156A      1.041080   157A      1.050731  
     158A      1.053734   159A      1.056634   160A      1.067558  
     161A      1.070874   162A      1.072631   163A      1.085149  
     164A      1.089485   165A      1.098938   166A      1.105480  
     167A      1.113018   168A      1.122446   169A      1.123846  
     170A      1.129960   171A      1.132167   172A      1.139904  
     173A      1.149497   174A      1.154391   175A      1.161688  
     176A      1.171363   177A      1.180671   178A      1.186976  
     179A      1.191667   180A      1.200111   181A      1.202374  
     182A      1.213770   183A      1.219589   184A      1.226547  
     185A      1.230851   186A      1.236683   187A      1.248139  
     188A      1.259133   189A      1.267112   190A      1.277360  
     191A      1.281317   192A      1.285156   193A      1.290605  
     194A      1.300231   195A      1.306471   196A      1.315486  
     197A      1.321717   198A      1.340379   199A      1.344754  
     200A      1.351357   201A      1.353930   202A      1.374420  
     203A      1.378591   204A      1.389811   205A      1.395096  
     206A      1.407591   207A      1.418600   208A      1.422711  
     209A      1.429794   210A      1.438168   211A      1.453736  
     212A      1.457666   213A      1.467389   214A      1.479481  
     215A      1.486000   216A      1.489722   217A      1.497984  
     218A      1.510045   219A      1.533942   220A      1.542179  
     221A      1.544747   222A      1.559161   223A      1.562784  
     224A      1.575980   225A      1.582105   226A      1.593134  
     227A      1.608480   228A      1.615683   229A      1.624467  
     230A      1.638653   231A      1.642005   232A      1.652264  
     233A      1.670756   234A      1.675454   235A      1.692071  
     236A      1.700824   237A      1.713350   238A      1.724004  
     239A      1.727091   240A      1.736745   241A      1.750007  
     242A      1.760065   243A      1.772444   244A      1.797325  
     245A      1.801282   246A      1.805262   247A      1.826439  
     248A      1.835590   249A      1.839867   250A      1.852478  
     251A      1.856749   252A      1.866683   253A      1.875525  
     254A      1.884075   255A      1.896073   256A      1.913741  
     257A      1.927454   258A      1.933263   259A      1.936164  
     260A      1.957720   261A      1.962234   262A      1.989721  
     263A      2.016918   264A      2.023400   265A      2.035270  
     266A      2.043465   267A      2.046798   268A      2.065481  
     269A      2.066241   270A      2.075381   271A      2.095401  
     272A      2.100339   273A      2.118830   274A      2.124209  
     275A      2.136889   276A      2.152433   277A      2.161178  
     278A      2.177734   279A      2.195642   280A      2.217475  
     281A      2.223337   282A      2.228301   283A      2.233846  
     284A      2.255369   285A      2.270863   286A      2.283097  
     287A      2.288946   288A      2.297277   289A      2.311179  
     290A      2.319602   291A      2.345808   292A      2.364156  
     293A      2.378471   294A      2.398368   295A      2.410637  
     296A      2.414803   297A      2.449657   298A      2.474418  
     299A      2.486575   300A      2.499369   301A      2.514585  
     302A      2.521228   303A      2.586737   304A      2.590779  
     305A      2.613860   306A      2.644907   307A      2.671697  
     308A      2.678368   309A      2.691503   310A      2.701776  
     311A      2.716993   312A      2.743292   313A      2.772829  
     314A      2.791128   315A      2.817943   316A      2.832855  
     317A      2.862089   318A      2.867986   319A      2.873305  
     320A      2.890079   321A      2.921194   322A      2.929938  
     323A      2.955829   324A      2.968484   325A      3.001558  
     326A      3.008844   327A      3.049911   328A      3.054836  
     329A      3.097392   330A      3.108769   331A      3.132921  
     332A      3.146003   333A      3.170430   334A      3.196078  
     335A      3.249150   336A      3.284114   337A      3.321022  
     338A      3.334770   339A      3.370407   340A      3.380590  
     341A      3.441623   342A      3.460916   343A      3.495961  
     344A      3.511374   345A      3.532449   346A      3.541891  
     347A      3.584700   348A      3.635147   349A      3.649436  
     350A      3.687627   351A      3.710186   352A      3.715151  
     353A      3.721882   354A      3.738916   355A      3.767006  
     356A      3.792375   357A      3.808710   358A      3.824679  
     359A      3.833633   360A      3.865047   361A      3.876463  
     362A      3.891906   363A      3.925014   364A      3.959716  
     365A      3.982320   366A      3.997993   367A      4.014889  
     368A      4.026593   369A      4.060150   370A      4.087756  
     371A      4.096850   372A      4.122426   373A      4.140578  
     374A      4.154781   375A      4.178295   376A      4.199886  
     377A      4.209663   378A      4.213653   379A      4.225515  
     380A      4.237630   381A      4.242764   382A      4.255797  
     383A      4.265455   384A      4.290027   385A      4.310316  
     386A      4.325964   387A      4.342917   388A      4.368024  
     389A      4.381660   390A      4.393161   391A      4.414422  
     392A      4.430037   393A      4.469665   394A      4.488111  
     395A      4.509568   396A      4.514955   397A      4.541188  
     398A      4.547355   399A      4.562679   400A      4.582537  
     401A      4.592790   402A      4.609852   403A      4.625633  
     404A      4.639030   405A      4.653002   406A      4.664195  
     407A      4.676120   408A      4.684372   409A      4.710511  
     410A      4.733099   411A      4.749746   412A      4.755645  
     413A      4.780805   414A      4.797896   415A      4.822438  
     416A      4.830117   417A      4.867805   418A      4.882422  
     419A      4.892698   420A      4.901556   421A      4.905879  
     422A      4.921292   423A      4.940100   424A      4.942000  
     425A      4.969240   426A      4.973573   427A      4.991683  
     428A      5.020550   429A      5.039806   430A      5.046909  
     431A      5.054063   432A      5.072614   433A      5.081221  
     434A      5.094670   435A      5.099158   436A      5.136361  
     437A      5.138623   438A      5.158295   439A      5.186047  
     440A      5.230186   441A      5.246323   442A      5.251977  
     443A      5.262221   444A      5.281974   445A      5.287767  
     446A      5.316329   447A      5.360004   448A      5.373697  
     449A      5.384270   450A      5.410483   451A      5.424533  
     452A      5.429237   453A      5.434105   454A      5.477207  
     455A      5.518121   456A      5.520116   457A      5.545392  
     458A      5.566641   459A      5.568914   460A      5.589452  
     461A      5.607798   462A      5.615762   463A      5.628195  
     464A      5.653606   465A      5.665192   466A      5.678785  
     467A      5.695639   468A      5.725494   469A      5.735358  
     470A      5.743735   471A      5.778439   472A      5.805212  
     473A      5.810377   474A      5.833517   475A      5.872192  
     476A      5.891322   477A      5.934172   478A      6.003612  
     479A      6.033334   480A      6.041663   481A      6.077367  
     482A      6.091817   483A      6.147919   484A      6.154540  
     485A      6.203084   486A      6.215491   487A      6.243640  
     488A      6.263266   489A      6.307617   490A      6.322641  
     491A      6.341602   492A      6.386116   493A      6.426867  
     494A      6.492800   495A      6.566173   496A      6.716005  
     497A      6.789306   498A      6.815188   499A      6.840952  
     500A      6.883244   501A      6.894070   502A      6.988642  
     503A      7.012167   504A      7.033912   505A      7.057457  
     506A      7.081791   507A      7.171372   508A      7.205574  
     509A      7.215655   510A      7.370488   511A      7.402759  
     512A      7.418829   513A      7.526712   514A      7.555034  
     515A      7.671348   516A      7.796405   517A      7.841978  
     518A      7.871513   519A      7.884564   520A      7.901477  
     521A      7.930135   522A      7.952954   523A      7.959949  
     524A      8.058496   525A      8.154719   526A      8.181334  
     527A      8.273719   528A      8.317721   529A      8.329262  
     530A      8.392847   531A      8.449694   532A      8.592129  
     533A      8.650378   534A      8.935291   535A      9.024634  
     536A     10.011537   537A     10.134676   538A     10.268138  
     539A     10.404995   540A     10.692992   541A     10.749951  
     542A     11.075810   543A     12.066253   544A     12.427277  
     545A     13.310064   546A     14.116506   547A     16.552154  
     548A     17.933325   549A     18.948348   550A     53.211630  
     551A     54.697693   552A     66.868881  

    Final Occupation by Irrep:
              A 
    DOCC [    13 ]
    NA   [    13 ]
    NB   [    13 ]

  @DF-RHF Final Energy:  -154.14507506384325

   => Energetics <=

    Nuclear Repulsion Energy =             82.0832458006871803
    One-Electron Energy =                -372.0741117009425807
    Two-Electron Energy =                 135.8457908364121636
    Total Energy =                       -154.1450750638432510

Computation Completed


Properties will be evaluated at   0.000000,   0.000000,   0.000000 [a0]

Properties computed using the SCF density matrix


 Multipole Moments:

 ------------------------------------------------------------------------------------
     Multipole            Electronic (a.u.)      Nuclear  (a.u.)        Total (a.u.)
 ------------------------------------------------------------------------------------

 L = 1.  Multiply by 2.5417464519 to convert [e a0] to [Debye]
 Dipole X            :        -86.1879408           86.5716835            0.3837428
 Dipole Y            :         -1.5142805            2.1205543            0.6062738
 Dipole Z            :          1.2047382           -1.2228739           -0.0181357
 Magnitude           :                                                    0.7177432

 ------------------------------------------------------------------------------------

*** tstop() called on moses-razer at Sun Mar  2 08:07:23 2025
Module time:
	user time   =     139.82 seconds =       2.33 minutes
	system time =       2.07 seconds =       0.03 minutes
	total time  =        142 seconds =       2.37 minutes
Total time:
	user time   =     452.86 seconds =       7.55 minutes
	system time =       7.65 seconds =       0.13 minutes
	total time  =        460 seconds =       7.67 minutes
  Constructing Basis Sets for SAPT...

   => Loading Basis Set <=

    Name: (AUG-CC-PVTZ AUX)
    Role: RIFIT
    Keyword: DF_BASIS_SAPT
    atoms 1-2, 10-11 entry C          line   148 file /home/kchung25/anaconda3/envs/p415env/share/psi4/basis/aug-cc-pvtz-ri.gbs 
    atoms 3, 12      entry O          line   264 file /home/kchung25/anaconda3/envs/p415env/share/psi4/basis/aug-cc-pvtz-ri.gbs 
    atoms 4-9, 13-18 entry H          line    30 file /home/kchung25/anaconda3/envs/p415env/share/psi4/basis/aug-cc-pvtz-ri.gbs 

   => Loading Basis Set <=

    Name: (AUG-CC-PVTZ AUX)
    Role: JKFIT
    Keyword: DF_BASIS_ELST
    atoms 1-2, 10-11 entry C          line   162 file /home/kchung25/anaconda3/envs/p415env/share/psi4/basis/aug-cc-pvtz-jkfit.gbs 
    atoms 3, 12      entry O          line   286 file /home/kchung25/anaconda3/envs/p415env/share/psi4/basis/aug-cc-pvtz-jkfit.gbs 
    atoms 4-9, 13-18 entry H          line    70 file /home/kchung25/anaconda3/envs/p415env/share/psi4/basis/aug-cc-pvtz-jkfit.gbs 


  //>>>>>>>>>>>>>>>>>>>>>>>>>>>>>>>>>>>//
  //               SAPT2+              //
  //<<<<<<<<<<<<<<<<<<<<<<<<<<<<<<<<<<<//


*** tstart() called on moses-razer
*** at Sun Mar  2 08:07:24 2025

        SAPT2+  
    Ed Hohenstein
     6 June 2009

      Orbital Information
  --------------------------
    NSO        =       552
    NMO        =       552
    NRI        =      1188
    NOCC A     =        13
    NOCC B     =        13
    FOCC A     =         0
    FOCC B     =         0
    NVIR A     =       539
    NVIR B     =       539

    Estimated memory usage: 3939.5 MB

    Natural Orbital Cutoff:   1.000E-06
    Disp(T3) Truncation:            Yes
    CCD (vv|vv) Truncation:         Yes
    MBPT T2 Truncation:             Yes

    Monomer A: 306 virtual orbitals dropped
    Monomer B: 306 virtual orbitals dropped

    Elst10,r            =    -0.005066471651 [Eh]
    Exch10 (S^2)        =     0.008502167451 [Eh]
    Exch10              =     0.008521729446 [Eh]
    Ind20,r (A<-B)      =    -0.001060538562 [Eh]
    Ind20,r (B<-A)      =    -0.001435313968 [Eh]
    Ind20,r             =    -0.002495852530 [Eh]
    Exch-Ind20,r (A<-B) =     0.000642831622 [Eh]
    Exch-Ind20,r (B<-A) =     0.001052116188 [Eh]
    Exch-Ind20,r        =     0.001694947809 [Eh]
    Disp20              =    -0.007886463412 [Eh]
    Disp20 (NO)         =    -0.007012361602 [Eh]
    Exch-Disp20         =     0.000897802750 [Eh]
    Elst12,r            =    -0.000564676604 [Eh]
    Exch11              =     0.000081944260 [Eh]
    Exch12              =     0.001147628959 [Eh]
    Ind22               =    -0.000323750121 [Eh]
    Disp21              =     0.000464572357 [Eh]
    Disp22 (SDQ)        =     0.000135184819 [Eh]

    (i =   1 of  13)        238 seconds
    (i =   2 of  13)        479 seconds
    (i =   3 of  13)        720 seconds
    (i =   4 of  13)        957 seconds
    (i =   5 of  13)       1195 seconds
    (i =   6 of  13)       1432 seconds
    (i =   7 of  13)       1669 seconds
    (i =   8 of  13)       1906 seconds
    (i =   9 of  13)       2144 seconds
    (i =  10 of  13)       2381 seconds
    (i =  11 of  13)       2613 seconds
    (i =  12 of  13)       2834 seconds
    (i =  13 of  13)       3048 seconds

    Disp220 (T)         =    -0.000540605675 [Eh]

    (i =   1 of  13)        216 seconds
    (i =   2 of  13)        433 seconds
    (i =   3 of  13)        646 seconds
    (i =   4 of  13)        854 seconds
    (i =   5 of  13)       1065 seconds
    (i =   6 of  13)       1282 seconds
    (i =   7 of  13)       1499 seconds
    (i =   8 of  13)       1716 seconds
    (i =   9 of  13)       1932 seconds
    (i =  10 of  13)       2148 seconds
    (i =  11 of  13)       2363 seconds
    (i =  12 of  13)       2573 seconds
    (i =  13 of  13)       2785 seconds

    Disp202 (T)         =    -0.000562378021 [Eh]

    Disp22 (T)          =    -0.001102983696 [Eh]

    Est. Disp220 (T)    =    -0.000607993016 [Eh]
    Est. Disp202 (T)    =    -0.000632479319 [Eh]

    Est. Disp22 (T)     =    -0.001240472334 [Eh]

    SAPT Results 
  --------------------------------------------------------------------------------------------------------
    Electrostatics                 -5.63114826 [mEh]      -3.53359888 [kcal/mol]     -14.78457771 [kJ/mol]
      Elst10,r                     -5.06647165 [mEh]      -3.17925896 [kcal/mol]     -13.30201949 [kJ/mol]
      Elst12,r                     -0.56467660 [mEh]      -0.35433992 [kcal/mol]      -1.48255822 [kJ/mol]

    Exchange                        9.75130266 [mEh]       6.11903480 [kcal/mol]      25.60204162 [kJ/mol]
      Exch10                        8.52172945 [mEh]       5.34746596 [kcal/mol]      22.37379758 [kJ/mol]
      Exch10(S^2)                   8.50216745 [mEh]       5.33519062 [kcal/mol]      22.32243757 [kJ/mol]
      Exch11(S^2)                   0.08194426 [mEh]       0.05142080 [kcal/mol]       0.21514462 [kJ/mol]
      Exch12(S^2)                   1.14762896 [mEh]       0.72014804 [kcal/mol]       3.01309942 [kJ/mol]

    Induction                      -1.59410734 [mEh]      -1.00031746 [kcal/mol]      -4.18532823 [kJ/mol]
      Ind20,r                      -2.49585253 [mEh]      -1.56617111 [kcal/mol]      -6.55285991 [kJ/mol]
      Ind22                        -0.32375012 [mEh]      -0.20315627 [kcal/mol]      -0.85000583 [kJ/mol]
      Exch-Ind20,r                  1.69494781 [mEh]       1.06359581 [kcal/mol]       4.45008486 [kJ/mol]
      Exch-Ind22                    0.21986057 [mEh]       0.13796459 [kcal/mol]       0.57724385 [kJ/mol]
      delta HF,r (2)               -0.68931306 [mEh]      -0.43255048 [kcal/mol]      -1.80979120 [kJ/mol]

    Dispersion                     -7.62937582 [mEh]      -4.78750561 [kcal/mol]     -20.03092345 [kJ/mol]
      Disp20                       -7.88646341 [mEh]      -4.94883051 [kcal/mol]     -20.70590684 [kJ/mol]
      Disp21                        0.46457236 [mEh]       0.29152356 [kcal/mol]       1.21973456 [kJ/mol]
      Disp22 (SDQ)                  0.13518482 [mEh]       0.08482975 [kcal/mol]       0.35492769 [kJ/mol]
      Disp22 (T)                   -1.10298370 [mEh]      -0.69213272 [kcal/mol]      -2.89588330 [kJ/mol]
      Est. Disp22 (T)              -1.24047233 [mEh]      -0.77840814 [kcal/mol]      -3.25685967 [kJ/mol]
      Exch-Disp20                   0.89780275 [mEh]       0.56337973 [kcal/mol]       2.35718080 [kJ/mol]

  Total HF                          1.96504001 [mEh]       1.23308122 [kcal/mol]       5.15921184 [kJ/mol]
  Total SAPT0                      -5.02362065 [mEh]      -3.15236955 [kcal/mol]     -13.18951420 [kJ/mol]
  Total SAPT2                      -4.46261359 [mEh]      -2.80033230 [kcal/mol]     -11.71659036 [kJ/mol]
  Total SAPT2+                     -5.10332875 [mEh]      -3.20238714 [kcal/mol]     -13.39878778 [kJ/mol]

  Special recipe for scaled SAPT0 (see Manual):
    Electrostatics sSAPT0          -5.06647165 [mEh]      -3.17925896 [kcal/mol]     -13.30201949 [kJ/mol]
    Exchange sSAPT0                 8.52172945 [mEh]       5.34746596 [kcal/mol]      22.37379758 [kJ/mol]
    Induction sSAPT0               -1.47849151 [mEh]      -0.92776743 [kcal/mol]      -3.88177893 [kJ/mol]
    Dispersion sSAPT0              -6.98244933 [mEh]      -4.38155311 [kcal/mol]     -18.33241820 [kJ/mol]
  Total sSAPT0                     -5.00568305 [mEh]      -3.14111354 [kcal/mol]     -13.14241904 [kJ/mol]
  --------------------------------------------------------------------------------------------------------

*** tstop() called on moses-razer at Sun Mar  2 10:12:15 2025
Module time:
	user time   =    7343.17 seconds =     122.39 minutes
	system time =     116.87 seconds =       1.95 minutes
	total time  =       7491 seconds =     124.85 minutes
Total time:
	user time   =    7796.39 seconds =     129.94 minutes
	system time =     124.52 seconds =       2.08 minutes
	total time  =       7952 seconds =     132.53 minutes

    Psi4 stopped on: Sunday, 02 March 2025 10:12AM
    Psi4 wall time for execution: 2:12:33.20

*** Psi4 exiting successfully. Buy a developer a beer!
