
    -----------------------------------------------------------------------
          Psi4: An Open-Source Ab Initio Electronic Structure Package
                               Psi4 1.9 release

                         Git: Rev {} zzzzzzz 


    D. G. A. Smith, L. A. Burns, A. C. Simmonett, R. M. Parrish,
    M. C. Schieber, R. Galvelis, P. Kraus, H. Kruse, R. Di Remigio,
    A. Alenaizan, A. M. James, S. Lehtola, J. P. Misiewicz, M. Scheurer,
    R. A. Shaw, J. B. Schriber, Y. Xie, Z. L. Glick, D. A. Sirianni,
    J. S. O'Brien, J. M. Waldrop, A. Kumar, E. G. Hohenstein,
    B. P. Pritchard, B. R. Brooks, H. F. Schaefer III, A. Yu. Sokolov,
    K. Patkowski, A. E. DePrince III, U. Bozkaya, R. A. King,
    F. A. Evangelista, J. M. Turney, T. D. Crawford, C. D. Sherrill,
    J. Chem. Phys. 152(18) 184108 (2020). https://doi.org/10.1063/5.0006002

                            Additional Code Authors
    E. T. Seidl, C. L. Janssen, E. F. Valeev, M. L. Leininger,
    J. F. Gonthier, R. M. Richard, H. R. McAlexander, M. Saitow, X. Wang,
    P. Verma, M. H. Lechner, A. Jiang, S. Behnle, A. G. Heide,
    M. F. Herbst, and D. L. Poole

             Previous Authors, Complete List of Code Contributors,
                       and Citations for Specific Modules
    https://github.com/psi4/psi4/blob/master/codemeta.json
    https://github.com/psi4/psi4/graphs/contributors
    http://psicode.org/psi4manual/master/introduction.html#citing-psifour

    -----------------------------------------------------------------------


    Psi4 started on: Saturday, 01 March 2025 11:12PM

    Process ID: 200853
    Host:       moses-razer
    PSIDATADIR: /home/kchung25/anaconda3/envs/psi4_19/share/psi4
    Memory:     500.0 MiB
    Threads:    1
    
  ==> Input File <==

--------------------------------------------------------------------------
MEMORY 10 GB

molecule dimer {
0 1
C    1.664047  -1.098168  -0.483407
C    1.645436   0.172621   0.316483
O    2.803731   0.913154  -0.006258
H    2.810292   1.720736   0.510250
H    0.786578  -1.702859  -0.249187
H    2.561646  -1.677310  -0.258297
H    1.668226  -0.876731  -1.553158
H    1.608592  -0.061279   1.389819
H    0.733727   0.745832   0.090323
--
0 1
C   -2.523852   1.090249  -0.196029
C   -1.977141  -0.294805  -0.431995
O   -1.428621  -0.864125   0.736200
H   -2.110319  -0.890671   1.412321
H   -2.907636   1.526431  -1.120447
H   -1.745682   1.746778   0.199147
H   -3.345613   1.068408   0.525988
H   -1.158836  -0.264706  -1.157724
H   -2.752790  -0.946241  -0.858887

units ang
no_reorient
no_com
symmetry c1
}

set {
basis        aug-cc-pVTZ
scf_type     df
}

energy("sapt2+")
--------------------------------------------------------------------------

  Memory set to   9.313 GiB by Python driver.

Scratch directory: /scratch/
   => Loading Basis Set <=

    Name: AUG-CC-PVTZ
    Role: ORBITAL
    Keyword: BASIS
    atoms 1-2, 10-11 entry C          line   239 file /home/kchung25/anaconda3/envs/p415env/share/psi4/basis/aug-cc-pvtz.gbs 
    atoms 3, 12      entry O          line   331 file /home/kchung25/anaconda3/envs/p415env/share/psi4/basis/aug-cc-pvtz.gbs 
    atoms 4-9, 13-18 entry H          line    40 file /home/kchung25/anaconda3/envs/p415env/share/psi4/basis/aug-cc-pvtz.gbs 

   => Loading Basis Set <=

    Name: AUG-CC-PVTZ
    Role: ORBITAL
    Keyword: BASIS
    atoms 1-2, 10-11 entry C          line   239 file /home/kchung25/anaconda3/envs/p415env/share/psi4/basis/aug-cc-pvtz.gbs 
    atoms 3, 12      entry O          line   331 file /home/kchung25/anaconda3/envs/p415env/share/psi4/basis/aug-cc-pvtz.gbs 
    atoms 4-9, 13-18 entry H          line    40 file /home/kchung25/anaconda3/envs/p415env/share/psi4/basis/aug-cc-pvtz.gbs 


  //>>>>>>>>>>>>>>>>>>>>>>>>>>>>>>>>>>>//
  //              Dimer HF             //
  //<<<<<<<<<<<<<<<<<<<<<<<<<<<<<<<<<<<//

   => Libint2 <=

    Primary   basis highest AM E, G, H:  5, 4, 3
    Auxiliary basis highest AM E, G, H:  6, 5, 4
    Onebody   basis highest AM E, G, H:  6, 5, 4
    Solid Harmonics ordering:            gaussian

*** tstart() called on moses-razer
*** at Sat Mar  1 23:12:21 2025

   => Loading Basis Set <=

    Name: AUG-CC-PVTZ
    Role: ORBITAL
    Keyword: BASIS
    atoms 1-2, 10-11 entry C          line   239 file /home/kchung25/anaconda3/envs/p415env/share/psi4/basis/aug-cc-pvtz.gbs 
    atoms 3, 12      entry O          line   331 file /home/kchung25/anaconda3/envs/p415env/share/psi4/basis/aug-cc-pvtz.gbs 
    atoms 4-9, 13-18 entry H          line    40 file /home/kchung25/anaconda3/envs/p415env/share/psi4/basis/aug-cc-pvtz.gbs 


         ---------------------------------------------------------
                                   SCF
               by Justin Turney, Rob Parrish, Andy Simmonett
                          and Daniel G. A. Smith
                              RHF Reference
                        1 Threads,   9536 MiB Core
         ---------------------------------------------------------

  ==> Geometry <==

    Molecular point group: c1
    Full point group: C1

    Geometry (in Angstrom), charge = 0, multiplicity = 1:

       Center              X                  Y                   Z               Mass       
    ------------   -----------------  -----------------  -----------------  -----------------
         C            1.664047000000    -1.098168000000    -0.483407000000    12.000000000000
         C            1.645436000000     0.172621000000     0.316483000000    12.000000000000
         O            2.803731000000     0.913154000000    -0.006258000000    15.994914619570
         H            2.810292000000     1.720736000000     0.510250000000     1.007825032230
         H            0.786578000000    -1.702859000000    -0.249187000000     1.007825032230
         H            2.561646000000    -1.677310000000    -0.258297000000     1.007825032230
         H            1.668226000000    -0.876731000000    -1.553158000000     1.007825032230
         H            1.608592000000    -0.061279000000     1.389819000000     1.007825032230
         H            0.733727000000     0.745832000000     0.090323000000     1.007825032230
         C           -2.523852000000     1.090249000000    -0.196029000000    12.000000000000
         C           -1.977141000000    -0.294805000000    -0.431995000000    12.000000000000
         O           -1.428621000000    -0.864125000000     0.736200000000    15.994914619570
         H           -2.110319000000    -0.890671000000     1.412321000000     1.007825032230
         H           -2.907636000000     1.526431000000    -1.120447000000     1.007825032230
         H           -1.745682000000     1.746778000000     0.199147000000     1.007825032230
         H           -3.345613000000     1.068408000000     0.525988000000     1.007825032230
         H           -1.158836000000    -0.264706000000    -1.157724000000     1.007825032230
         H           -2.752790000000    -0.946241000000    -0.858887000000     1.007825032230

  Running in c1 symmetry.

  Rotational constants: A =      0.16946  B =      0.03912  C =      0.03520 [cm^-1]
  Rotational constants: A =   5080.13588  B =   1172.85916  C =   1055.30552 [MHz]
  Nuclear repulsion =  250.416569789479070

  Charge       = 0
  Multiplicity = 1
  Electrons    = 52
  Nalpha       = 26
  Nbeta        = 26

  ==> Algorithm <==

  SCF Algorithm Type is DF.
  DIIS enabled.
  MOM disabled.
  Fractional occupation disabled.
  Guess Type is SAD.
  Energy threshold   = 1.00e-08
  Density threshold  = 1.00e-08
  Integral threshold = 1.00e-12

  ==> Primary Basis <==

  Basis Set: AUG-CC-PVTZ
    Blend: AUG-CC-PVTZ
    Number of shells: 192
    Number of basis functions: 552
    Number of Cartesian functions: 630
    Spherical Harmonics?: true
    Max angular momentum: 3

   => Loading Basis Set <=

    Name: (AUG-CC-PVTZ AUX)
    Role: JKFIT
    Keyword: DF_BASIS_SCF
    atoms 1-2, 10-11 entry C          line   162 file /home/kchung25/anaconda3/envs/p415env/share/psi4/basis/aug-cc-pvtz-jkfit.gbs 
    atoms 3, 12      entry O          line   286 file /home/kchung25/anaconda3/envs/p415env/share/psi4/basis/aug-cc-pvtz-jkfit.gbs 
    atoms 4-9, 13-18 entry H          line    70 file /home/kchung25/anaconda3/envs/p415env/share/psi4/basis/aug-cc-pvtz-jkfit.gbs 

  ==> Integral Setup <==

  ==> DiskDFJK: Density-Fitted J/K Matrices <==

    J tasked:                  Yes
    K tasked:                  Yes
    wK tasked:                  No
    OpenMP threads:              1
    Integrals threads:           1
    Memory [MiB]:             7152
    Algorithm:                Core
    Integral Cache:           SAVE
    Schwarz Cutoff:          1E-12
    Fitting Condition:       1E-10

   => Auxiliary Basis Set <=

  Basis Set: (AUG-CC-PVTZ AUX)
    Blend: AUG-CC-PVTZ-JKFIT
    Number of shells: 348
    Number of basis functions: 1176
    Number of Cartesian functions: 1446
    Spherical Harmonics?: true
    Max angular momentum: 4

  Minimum eigenvalue in the overlap matrix is 7.5027021414E-06.
  Reciprocal condition number of the overlap matrix is 4.0637977870E-07.
    Using symmetric orthogonalization.

  ==> Pre-Iterations <==

  SCF Guess: Superposition of Atomic Densities via on-the-fly atomic UHF (no occupation information).

   -------------------------
    Irrep   Nso     Nmo    
   -------------------------
     A        552     552 
   -------------------------
    Total     552     552
   -------------------------

  ==> Iterations <==

                           Total Energy        Delta E     RMS |[F,P]|

   @DF-RHF iter SAD:  -307.04190091516642   -3.07042e+02   0.00000e+00 
   @DF-RHF iter   1:  -308.00262480731635   -9.60724e-01   1.33139e-03 ADIIS/DIIS
   @DF-RHF iter   2:  -308.22733945206323   -2.24715e-01   7.09873e-04 ADIIS/DIIS
   @DF-RHF iter   3:  -308.28549929944046   -5.81598e-02   1.18789e-04 ADIIS/DIIS
   @DF-RHF iter   4:  -308.28867799354350   -3.17869e-03   4.43209e-05 DIIS
   @DF-RHF iter   5:  -308.28902379698843   -3.45803e-04   8.41567e-06 DIIS
   @DF-RHF iter   6:  -308.28904342355548   -1.96266e-05   1.92508e-06 DIIS
   @DF-RHF iter   7:  -308.28904470689741   -1.28334e-06   5.70831e-07 DIIS
   @DF-RHF iter   8:  -308.28904480755153   -1.00654e-07   1.67204e-07 DIIS
   @DF-RHF iter   9:  -308.28904481804369   -1.04922e-08   4.30395e-08 DIIS
   @DF-RHF iter  10:  -308.28904481878578   -7.42091e-10   9.98078e-09 DIIS
  Energy and wave function converged.


  ==> Post-Iterations <==

    Orbital Energies [Eh]
    ---------------------

    Doubly Occupied:                                                      

       1A    -20.562131     2A    -20.545922     3A    -11.278588  
       4A    -11.260242     5A    -11.223273     6A    -11.196285  
       7A     -1.369481     8A     -1.351767     9A     -1.020014  
      10A     -1.001281    11A     -0.854448    12A     -0.820059  
      13A     -0.700493    14A     -0.687457    15A     -0.635857  
      16A     -0.629842    17A     -0.617364    18A     -0.563576  
      19A     -0.550340    20A     -0.533584    21A     -0.516476  
      22A     -0.512380    23A     -0.486652    24A     -0.477348  
      25A     -0.449538    26A     -0.428200  

    Virtual:                                                              

      27A      0.025302    28A      0.033508    29A      0.036266  
      30A      0.039709    31A      0.051024    32A      0.055367  
      33A      0.056117    34A      0.062622    35A      0.064490  
      36A      0.077289    37A      0.085626    38A      0.090129  
      39A      0.106215    40A      0.116150    41A      0.120986  
      42A      0.125513    43A      0.129903    44A      0.133112  
      45A      0.135543    46A      0.144048    47A      0.152397  
      48A      0.156340    49A      0.158222    50A      0.167652  
      51A      0.173917    52A      0.179798    53A      0.183170  
      54A      0.192485    55A      0.205355    56A      0.208396  
      57A      0.213340    58A      0.219315    59A      0.229718  
      60A      0.235094    61A      0.242147    62A      0.257025  
      63A      0.266856    64A      0.272876    65A      0.276436  
      66A      0.284651    67A      0.298279    68A      0.300499  
      69A      0.304205    70A      0.308325    71A      0.316332  
      72A      0.322694    73A      0.334030    74A      0.334910  
      75A      0.343446    76A      0.346033    77A      0.350178  
      78A      0.359256    79A      0.361729    80A      0.366439  
      81A      0.372524    82A      0.378448    83A      0.379351  
      84A      0.383693    85A      0.388128    86A      0.396084  
      87A      0.403404    88A      0.406973    89A      0.409759  
      90A      0.416253    91A      0.422208    92A      0.431965  
      93A      0.436643    94A      0.440015    95A      0.445838  
      96A      0.447691    97A      0.454384    98A      0.458300  
      99A      0.461988   100A      0.464152   101A      0.470758  
     102A      0.472542   103A      0.483473   104A      0.489919  
     105A      0.492941   106A      0.500997   107A      0.508901  
     108A      0.510531   109A      0.516783   110A      0.523111  
     111A      0.529406   112A      0.533691   113A      0.539978  
     114A      0.541936   115A      0.550162   116A      0.557124  
     117A      0.569785   118A      0.573469   119A      0.577237  
     120A      0.582967   121A      0.586519   122A      0.607990  
     123A      0.616187   124A      0.620528   125A      0.624683  
     126A      0.638438   127A      0.645073   128A      0.649370  
     129A      0.665169   130A      0.672791   131A      0.684510  
     132A      0.694535   133A      0.701957   134A      0.711355  
     135A      0.725475   136A      0.740985   137A      0.748207  
     138A      0.775185   139A      0.777515   140A      0.786316  
     141A      0.802002   142A      0.804702   143A      0.812800  
     144A      0.825925   145A      0.832139   146A      0.837964  
     147A      0.840802   148A      0.850967   149A      0.859786  
     150A      0.867071   151A      0.876346   152A      0.879806  
     153A      0.886378   154A      0.890419   155A      0.898701  
     156A      0.904874   157A      0.908359   158A      0.912193  
     159A      0.921669   160A      0.926693   161A      0.932482  
     162A      0.941413   163A      0.950856   164A      0.958690  
     165A      0.965165   166A      0.968454   167A      0.976899  
     168A      0.985287   169A      0.992046   170A      0.995735  
     171A      1.002644   172A      1.006913   173A      1.023141  
     174A      1.028591   175A      1.035272   176A      1.041129  
     177A      1.052991   178A      1.057897   179A      1.063514  
     180A      1.070735   181A      1.081894   182A      1.084118  
     183A      1.089257   184A      1.100745   185A      1.105846  
     186A      1.109455   187A      1.114370   188A      1.124602  
     189A      1.129275   190A      1.134717   191A      1.147356  
     192A      1.153031   193A      1.160316   194A      1.164525  
     195A      1.170321   196A      1.175096   197A      1.187919  
     198A      1.193941   199A      1.199822   200A      1.215544  
     201A      1.218160   202A      1.220305   203A      1.225807  
     204A      1.237286   205A      1.247034   206A      1.254111  
     207A      1.263849   208A      1.277437   209A      1.283414  
     210A      1.291841   211A      1.305612   212A      1.310796  
     213A      1.314559   214A      1.333617   215A      1.334601  
     216A      1.338509   217A      1.346634   218A      1.363465  
     219A      1.380079   220A      1.383709   221A      1.393534  
     222A      1.403293   223A      1.416624   224A      1.425879  
     225A      1.435446   226A      1.445950   227A      1.451326  
     228A      1.462439   229A      1.470048   230A      1.478932  
     231A      1.496560   232A      1.505596   233A      1.518476  
     234A      1.532292   235A      1.539015   236A      1.548397  
     237A      1.564505   238A      1.577071   239A      1.582513  
     240A      1.600643   241A      1.604296   242A      1.620356  
     243A      1.632809   244A      1.637428   245A      1.646960  
     246A      1.655191   247A      1.659645   248A      1.677361  
     249A      1.685881   250A      1.691034   251A      1.695948  
     252A      1.699070   253A      1.714779   254A      1.719314  
     255A      1.722816   256A      1.727419   257A      1.740993  
     258A      1.752115   259A      1.759032   260A      1.769909  
     261A      1.776068   262A      1.787673   263A      1.795098  
     264A      1.805657   265A      1.815991   266A      1.825012  
     267A      1.841972   268A      1.846893   269A      1.852041  
     270A      1.866390   271A      1.881953   272A      1.888087  
     273A      1.906015   274A      1.909270   275A      1.922793  
     276A      1.934566   277A      1.953247   278A      1.961858  
     279A      1.977956   280A      1.994831   281A      2.002692  
     282A      2.015574   283A      2.024170   284A      2.034780  
     285A      2.035919   286A      2.050191   287A      2.058833  
     288A      2.064261   289A      2.079517   290A      2.092286  
     291A      2.109971   292A      2.127020   293A      2.130930  
     294A      2.159649   295A      2.176746   296A      2.180514  
     297A      2.193962   298A      2.198268   299A      2.217082  
     300A      2.230985   301A      2.233441   302A      2.248440  
     303A      2.267644   304A      2.276006   305A      2.282972  
     306A      2.290684   307A      2.322653   308A      2.329512  
     309A      2.350309   310A      2.371778   311A      2.391520  
     312A      2.422190   313A      2.436063   314A      2.452959  
     315A      2.480050   316A      2.495763   317A      2.502711  
     318A      2.520121   319A      2.542171   320A      2.559773  
     321A      2.610050   322A      2.627852   323A      2.644279  
     324A      2.654783   325A      2.677365   326A      2.704143  
     327A      2.753886   328A      2.766855   329A      2.819123  
     330A      2.833596   331A      2.856546   332A      2.875205  
     333A      2.904751   334A      2.940340   335A      2.942767  
     336A      2.955184   337A      2.979639   338A      3.001694  
     339A      3.028363   340A      3.042587   341A      3.061515  
     342A      3.080388   343A      3.106510   344A      3.137715  
     345A      3.162700   346A      3.203942   347A      3.226767  
     348A      3.241855   349A      3.265925   350A      3.347781  
     351A      3.398714   352A      3.401325   353A      3.451499  
     354A      3.467643   355A      3.488042   356A      3.500319  
     357A      3.517180   358A      3.524207   359A      3.535683  
     360A      3.555458   361A      3.582105   362A      3.619658  
     363A      3.622239   364A      3.647327   365A      3.656488  
     366A      3.662245   367A      3.673419   368A      3.686372  
     369A      3.707509   370A      3.715679   371A      3.740587  
     372A      3.755863   373A      3.764230   374A      3.777105  
     375A      3.796945   376A      3.808782   377A      3.823627  
     378A      3.845894   379A      3.853835   380A      3.861470  
     381A      3.881510   382A      3.896887   383A      3.918951  
     384A      3.933503   385A      3.959471   386A      3.965930  
     387A      3.973250   388A      3.990384   389A      4.003976  
     390A      4.009967   391A      4.016665   392A      4.031020  
     393A      4.041693   394A      4.054307   395A      4.081884  
     396A      4.090711   397A      4.098158   398A      4.107771  
     399A      4.112823   400A      4.125400   401A      4.151570  
     402A      4.155728   403A      4.165381   404A      4.177430  
     405A      4.184802   406A      4.210195   407A      4.222161  
     408A      4.233859   409A      4.246626   410A      4.258508  
     411A      4.267440   412A      4.295052   413A      4.325065  
     414A      4.347436   415A      4.352407   416A      4.368821  
     417A      4.375382   418A      4.409910   419A      4.432113  
     420A      4.439501   421A      4.487891   422A      4.498404  
     423A      4.518253   424A      4.531345   425A      4.553280  
     426A      4.557534   427A      4.583685   428A      4.593758  
     429A      4.601010   430A      4.612138   431A      4.622519  
     432A      4.645613   433A      4.657569   434A      4.692380  
     435A      4.704323   436A      4.731118   437A      4.743863  
     438A      4.757935   439A      4.769683   440A      4.795615  
     441A      4.815026   442A      4.820791   443A      4.847406  
     444A      4.859774   445A      4.877367   446A      4.882592  
     447A      4.920482   448A      4.930128   449A      4.940984  
     450A      4.964764   451A      4.970494   452A      4.982225  
     453A      4.999597   454A      5.016690   455A      5.029645  
     456A      5.048467   457A      5.071504   458A      5.076813  
     459A      5.106992   460A      5.120721   461A      5.140692  
     462A      5.154621   463A      5.171010   464A      5.188609  
     465A      5.201896   466A      5.207831   467A      5.234995  
     468A      5.242094   469A      5.263992   470A      5.297061  
     471A      5.320434   472A      5.365239   473A      5.372044  
     474A      5.379580   475A      5.390427   476A      5.403855  
     477A      5.421514   478A      5.452736   479A      5.475178  
     480A      5.500168   481A      5.520030   482A      5.548908  
     483A      5.556310   484A      5.572008   485A      5.586790  
     486A      5.605525   487A      5.626915   488A      5.634374  
     489A      5.653237   490A      5.669518   491A      5.695281  
     492A      5.733488   493A      5.778111   494A      5.788156  
     495A      5.794896   496A      5.842009   497A      5.868622  
     498A      5.881964   499A      6.000968   500A      6.050302  
     501A      6.089689   502A      6.104250   503A      6.119027  
     504A      6.129124   505A      6.175165   506A      6.206758  
     507A      6.230916   508A      6.255456   509A      6.263257  
     510A      6.272221   511A      6.289302   512A      6.318190  
     513A      6.421610   514A      6.469785   515A      6.718635  
     516A      6.737228   517A      6.755050   518A      6.770406  
     519A      6.791981   520A      6.838367   521A      6.887857  
     522A      6.915329   523A      6.948809   524A      6.954057  
     525A      6.997762   526A      7.031900   527A      7.146943  
     528A      7.155733   529A      7.374127   530A      7.382277  
     531A      7.384458   532A      7.395729   533A      7.514374  
     534A      7.537848   535A      7.550580   536A      7.555911  
     537A      7.627203   538A      7.738420   539A      7.862556  
     540A      7.863021   541A      7.958673   542A      7.979454  
     543A      8.267798   544A      8.285338   545A      8.623829  
     546A      8.653047   547A     16.049027   548A     16.396633  
     549A     17.820487   550A     18.258327   551A     18.667024  
     552A     18.826735  

    Final Occupation by Irrep:
              A 
    DOCC [    26 ]
    NA   [    26 ]
    NB   [    26 ]

  @DF-RHF Final Energy:  -308.28904481878578

   => Energetics <=

    Nuclear Repulsion Energy =            250.4165697894790696
    One-Electron Energy =                -916.8660270333061817
    Two-Electron Energy =                 358.1604124250412724
    Total Energy =                       -308.2890448187857828

Computation Completed


Properties will be evaluated at   0.000000,   0.000000,   0.000000 [a0]

Properties computed using the SCF density matrix


 Multipole Moments:

 ------------------------------------------------------------------------------------
     Multipole            Electronic (a.u.)      Nuclear  (a.u.)        Total (a.u.)
 ------------------------------------------------------------------------------------

 L = 1.  Multiply by 2.5417464519 to convert [e a0] to [Debye]
 Dipole X            :         -1.2436060            0.0000094           -1.2435965
 Dipole Y            :          0.3930878            0.0000038            0.3930916
 Dipole Z            :          0.3867843           -0.0000076            0.3867768
 Magnitude           :                                                    1.3603858

 ------------------------------------------------------------------------------------

*** tstop() called on moses-razer at Sat Mar  1 23:15:21 2025
Module time:
	user time   =     176.26 seconds =       2.94 minutes
	system time =       4.33 seconds =       0.07 minutes
	total time  =        180 seconds =       3.00 minutes
Total time:
	user time   =     176.26 seconds =       2.94 minutes
	system time =       4.33 seconds =       0.07 minutes
	total time  =        180 seconds =       3.00 minutes

  //>>>>>>>>>>>>>>>>>>>>>>>>>>>>>>>>>>>//
  //            Monomer A HF           //
  //<<<<<<<<<<<<<<<<<<<<<<<<<<<<<<<<<<<//

   => Libint2 <=

    Primary   basis highest AM E, G, H:  5, 4, 3
    Auxiliary basis highest AM E, G, H:  6, 5, 4
    Onebody   basis highest AM E, G, H:  6, 5, 4
    Solid Harmonics ordering:            gaussian

*** tstart() called on moses-razer
*** at Sat Mar  1 23:15:21 2025

   => Loading Basis Set <=

    Name: AUG-CC-PVTZ
    Role: ORBITAL
    Keyword: BASIS
    atoms 1-2, 10-11 entry C          line   239 file /home/kchung25/anaconda3/envs/p415env/share/psi4/basis/aug-cc-pvtz.gbs 
    atoms 3, 12      entry O          line   331 file /home/kchung25/anaconda3/envs/p415env/share/psi4/basis/aug-cc-pvtz.gbs 
    atoms 4-9, 13-18 entry H          line    40 file /home/kchung25/anaconda3/envs/p415env/share/psi4/basis/aug-cc-pvtz.gbs 


         ---------------------------------------------------------
                                   SCF
               by Justin Turney, Rob Parrish, Andy Simmonett
                          and Daniel G. A. Smith
                              RHF Reference
                        1 Threads,   9536 MiB Core
         ---------------------------------------------------------

  ==> Geometry <==

    Molecular point group: c1
    Full point group: C1

    Geometry (in Angstrom), charge = 0, multiplicity = 1:

       Center              X                  Y                   Z               Mass       
    ------------   -----------------  -----------------  -----------------  -----------------
         C            1.664047000000    -1.098168000000    -0.483407000000    12.000000000000
         C            1.645436000000     0.172621000000     0.316483000000    12.000000000000
         O            2.803731000000     0.913154000000    -0.006258000000    15.994914619570
         H            2.810292000000     1.720736000000     0.510250000000     1.007825032230
         H            0.786578000000    -1.702859000000    -0.249187000000     1.007825032230
         H            2.561646000000    -1.677310000000    -0.258297000000     1.007825032230
         H            1.668226000000    -0.876731000000    -1.553158000000     1.007825032230
         H            1.608592000000    -0.061279000000     1.389819000000     1.007825032230
         H            0.733727000000     0.745832000000     0.090323000000     1.007825032230
      Gh(C)          -2.523852000000     1.090249000000    -0.196029000000    12.000000000000
      Gh(C)          -1.977141000000    -0.294805000000    -0.431995000000    12.000000000000
      Gh(O)          -1.428621000000    -0.864125000000     0.736200000000    15.994914619570
      Gh(H)          -2.110319000000    -0.890671000000     1.412321000000     1.007825032230
      Gh(H)          -2.907636000000     1.526431000000    -1.120447000000     1.007825032230
      Gh(H)          -1.745682000000     1.746778000000     0.199147000000     1.007825032230
      Gh(H)          -3.345613000000     1.068408000000     0.525988000000     1.007825032230
      Gh(H)          -1.158836000000    -0.264706000000    -1.157724000000     1.007825032230
      Gh(H)          -2.752790000000    -0.946241000000    -0.858887000000     1.007825032230

  Running in c1 symmetry.

  Rotational constants: A =      0.16946  B =      0.03912  C =      0.03520 [cm^-1]
  Rotational constants: A =   5080.13588  B =   1172.85916  C =   1055.30552 [MHz]
  Nuclear repulsion =   82.247274841921168

  Charge       = 0
  Multiplicity = 1
  Electrons    = 26
  Nalpha       = 13
  Nbeta        = 13

  ==> Algorithm <==

  SCF Algorithm Type is DF.
  DIIS enabled.
  MOM disabled.
  Fractional occupation disabled.
  Guess Type is SAD.
  Energy threshold   = 1.00e-08
  Density threshold  = 1.00e-08
  Integral threshold = 1.00e-12

  ==> Primary Basis <==

  Basis Set: AUG-CC-PVTZ
    Blend: AUG-CC-PVTZ
    Number of shells: 192
    Number of basis functions: 552
    Number of Cartesian functions: 630
    Spherical Harmonics?: true
    Max angular momentum: 3

   => Loading Basis Set <=

    Name: (AUG-CC-PVTZ AUX)
    Role: JKFIT
    Keyword: DF_BASIS_SCF
    atoms 1-2, 10-11 entry C          line   162 file /home/kchung25/anaconda3/envs/p415env/share/psi4/basis/aug-cc-pvtz-jkfit.gbs 
    atoms 3, 12      entry O          line   286 file /home/kchung25/anaconda3/envs/p415env/share/psi4/basis/aug-cc-pvtz-jkfit.gbs 
    atoms 4-9, 13-18 entry H          line    70 file /home/kchung25/anaconda3/envs/p415env/share/psi4/basis/aug-cc-pvtz-jkfit.gbs 

  ==> Integral Setup <==

  ==> DiskDFJK: Density-Fitted J/K Matrices <==

    J tasked:                  Yes
    K tasked:                  Yes
    wK tasked:                  No
    OpenMP threads:              1
    Integrals threads:           1
    Memory [MiB]:             7152
    Algorithm:                Core
    Integral Cache:           LOAD
    Schwarz Cutoff:          1E-12
    Fitting Condition:       1E-10

   => Auxiliary Basis Set <=

  Basis Set: (AUG-CC-PVTZ AUX)
    Blend: AUG-CC-PVTZ-JKFIT
    Number of shells: 348
    Number of basis functions: 1176
    Number of Cartesian functions: 1446
    Spherical Harmonics?: true
    Max angular momentum: 4

  Minimum eigenvalue in the overlap matrix is 7.5027021413E-06.
  Reciprocal condition number of the overlap matrix is 4.0637977869E-07.
    Using symmetric orthogonalization.

  ==> Pre-Iterations <==

  SCF Guess: Superposition of Atomic Densities via on-the-fly atomic UHF (no occupation information).

   -------------------------
    Irrep   Nso     Nmo    
   -------------------------
     A        552     552 
   -------------------------
    Total     552     552
   -------------------------

  ==> Iterations <==

                           Total Energy        Delta E     RMS |[F,P]|

   @DF-RHF iter SAD:  -153.45066850326893   -1.53451e+02   0.00000e+00 
   @DF-RHF iter   1:  -153.99871324927150   -5.48045e-01   9.60402e-04 ADIIS/DIIS
   @DF-RHF iter   2:  -154.11086540992713   -1.12152e-01   5.34012e-04 ADIIS/DIIS
   @DF-RHF iter   3:  -154.14376889597708   -3.29035e-02   8.44346e-05 DIIS
   @DF-RHF iter   4:  -154.14536505055946   -1.59615e-03   3.23754e-05 DIIS
   @DF-RHF iter   5:  -154.14554923754105   -1.84187e-04   5.76398e-06 DIIS
   @DF-RHF iter   6:  -154.14555882551730   -9.58798e-06   1.27591e-06 DIIS
   @DF-RHF iter   7:  -154.14555937982672   -5.54309e-07   3.91601e-07 DIIS
   @DF-RHF iter   8:  -154.14555942340880   -4.35821e-08   1.04677e-07 DIIS
   @DF-RHF iter   9:  -154.14555942755999   -4.15119e-09   2.51482e-08 DIIS
   @DF-RHF iter  10:  -154.14555942781817   -2.58183e-10   4.77287e-09 DIIS
  Energy and wave function converged.


  ==> Post-Iterations <==

    Orbital Energies [Eh]
    ---------------------

    Doubly Occupied:                                                      

       1A    -20.556168     2A    -11.273615     3A    -11.210901  
       4A     -1.361907     5A     -1.014648     6A     -0.832821  
       7A     -0.703860     8A     -0.644880     9A     -0.574558  
      10A     -0.533994    11A     -0.523974    12A     -0.489601  
      13A     -0.439862  

    Virtual:                                                              

      14A      0.019792    15A      0.031666    16A      0.035058  
      17A      0.037938    18A      0.049231    19A      0.053612  
      20A      0.054822    21A      0.060825    22A      0.064839  
      23A      0.075149    24A      0.079026    25A      0.089560  
      26A      0.095822    27A      0.104915    28A      0.110477  
      29A      0.116104    30A      0.118932    31A      0.127436  
      32A      0.131111    33A      0.139217    34A      0.141885  
      35A      0.145395    36A      0.155271    37A      0.162640  
      38A      0.165047    39A      0.172506    40A      0.176810  
      41A      0.190355    42A      0.197207    43A      0.201737  
      44A      0.211750    45A      0.216770    46A      0.220893  
      47A      0.230292    48A      0.236700    49A      0.252593  
      50A      0.256700    51A      0.267396    52A      0.271150  
      53A      0.279547    54A      0.280680    55A      0.289976  
      56A      0.291989    57A      0.302835    58A      0.310327  
      59A      0.313430    60A      0.326099    61A      0.330809  
      62A      0.334893    63A      0.335987    64A      0.342376  
      65A      0.348330    66A      0.354057    67A      0.367326  
      68A      0.369260    69A      0.374626    70A      0.375632  
      71A      0.378060    72A      0.381057    73A      0.385724  
      74A      0.396181    75A      0.400331    76A      0.408284  
      77A      0.409987    78A      0.416779    79A      0.427144  
      80A      0.431952    81A      0.437590    82A      0.443490  
      83A      0.446645    84A      0.458969    85A      0.460140  
      86A      0.463533    87A      0.466585    88A      0.477227  
      89A      0.481646    90A      0.488239    91A      0.493057  
      92A      0.500049    93A      0.503421    94A      0.511745  
      95A      0.519202    96A      0.524849    97A      0.528572  
      98A      0.534986    99A      0.539669   100A      0.541313  
     101A      0.549919   102A      0.555701   103A      0.563290  
     104A      0.577232   105A      0.578583   106A      0.593438  
     107A      0.603243   108A      0.607922   109A      0.615865  
     110A      0.617987   111A      0.625065   112A      0.633091  
     113A      0.640400   114A      0.649418   115A      0.652415  
     116A      0.660926   117A      0.671542   118A      0.678962  
     119A      0.680804   120A      0.699429   121A      0.708314  
     122A      0.712685   123A      0.725823   124A      0.737087  
     125A      0.742142   126A      0.754935   127A      0.766780  
     128A      0.777479   129A      0.788264   130A      0.808599  
     131A      0.816432   132A      0.821726   133A      0.829073  
     134A      0.846761   135A      0.862714   136A      0.865628  
     137A      0.877192   138A      0.884168   139A      0.893753  
     140A      0.900952   141A      0.902381   142A      0.914115  
     143A      0.923801   144A      0.933277   145A      0.937061  
     146A      0.938548   147A      0.949566   148A      0.961396  
     149A      0.976254   150A      0.980721   151A      0.991059  
     152A      0.995808   153A      1.002309   154A      1.007930  
     155A      1.014142   156A      1.022286   157A      1.027278  
     158A      1.031338   159A      1.040095   160A      1.046067  
     161A      1.053584   162A      1.058888   163A      1.075890  
     164A      1.077632   165A      1.084909   166A      1.094019  
     167A      1.097917   168A      1.103442   169A      1.108026  
     170A      1.112994   171A      1.116549   172A      1.124744  
     173A      1.131330   174A      1.137194   175A      1.151164  
     176A      1.153939   177A      1.158788   178A      1.168014  
     179A      1.173860   180A      1.177837   181A      1.189897  
     182A      1.195496   183A      1.201718   184A      1.206501  
     185A      1.213270   186A      1.223705   187A      1.229028  
     188A      1.237179   189A      1.244718   190A      1.248338  
     191A      1.253730   192A      1.262920   193A      1.278998  
     194A      1.285413   195A      1.290191   196A      1.304006  
     197A      1.315729   198A      1.326003   199A      1.329000  
     200A      1.336111   201A      1.337316   202A      1.349206  
     203A      1.360685   204A      1.372098   205A      1.373123  
     206A      1.380434   207A      1.387636   208A      1.399568  
     209A      1.410366   210A      1.425804   211A      1.437164  
     212A      1.440228   213A      1.458413   214A      1.461481  
     215A      1.463757   216A      1.476633   217A      1.481669  
     218A      1.487524   219A      1.515269   220A      1.517367  
     221A      1.527378   222A      1.538462   223A      1.542121  
     224A      1.556773   225A      1.557042   226A      1.566495  
     227A      1.586232   228A      1.602620   229A      1.613279  
     230A      1.631297   231A      1.636147   232A      1.654816  
     233A      1.664732   234A      1.670476   235A      1.682111  
     236A      1.685662   237A      1.691872   238A      1.706846  
     239A      1.714018   240A      1.724342   241A      1.729567  
     242A      1.741037   243A      1.747998   244A      1.755673  
     245A      1.772408   246A      1.781673   247A      1.795878  
     248A      1.807481   249A      1.818304   250A      1.827789  
     251A      1.839294   252A      1.850976   253A      1.864702  
     254A      1.874899   255A      1.877212   256A      1.902707  
     257A      1.937030   258A      1.945270   259A      1.947601  
     260A      1.957259   261A      1.960738   262A      1.966574  
     263A      1.987096   264A      2.003431   265A      2.011518  
     266A      2.019354   267A      2.029535   268A      2.048257  
     269A      2.057589   270A      2.062444   271A      2.075720  
     272A      2.080515   273A      2.098462   274A      2.115957  
     275A      2.122683   276A      2.132197   277A      2.145105  
     278A      2.160477   279A      2.171433   280A      2.184598  
     281A      2.185359   282A      2.190917   283A      2.211831  
     284A      2.223169   285A      2.246536   286A      2.252181  
     287A      2.276112   288A      2.287051   289A      2.292468  
     290A      2.316583   291A      2.321672   292A      2.331086  
     293A      2.342446   294A      2.354807   295A      2.394501  
     296A      2.401844   297A      2.426864   298A      2.455169  
     299A      2.468684   300A      2.477787   301A      2.495640  
     302A      2.510811   303A      2.523556   304A      2.554846  
     305A      2.557027   306A      2.587434   307A      2.603415  
     308A      2.623651   309A      2.635306   310A      2.669463  
     311A      2.699734   312A      2.719950   313A      2.721807  
     314A      2.741086   315A      2.761491   316A      2.772736  
     317A      2.809569   318A      2.844612   319A      2.848336  
     320A      2.867778   321A      2.887106   322A      2.914036  
     323A      2.928509   324A      2.934821   325A      2.962436  
     326A      2.971034   327A      2.976302   328A      3.009872  
     329A      3.036906   330A      3.095229   331A      3.105842  
     332A      3.141532   333A      3.155089   334A      3.170428  
     335A      3.244049   336A      3.271312   337A      3.301487  
     338A      3.336265   339A      3.368245   340A      3.372935  
     341A      3.449252   342A      3.464234   343A      3.489390  
     344A      3.507534   345A      3.540003   346A      3.543371  
     347A      3.568167   348A      3.609358   349A      3.624480  
     350A      3.629899   351A      3.656248   352A      3.662270  
     353A      3.709963   354A      3.744378   355A      3.746382  
     356A      3.772614   357A      3.818780   358A      3.836366  
     359A      3.855633   360A      3.878942   361A      3.886236  
     362A      3.909809   363A      3.921736   364A      3.958490  
     365A      3.988185   366A      3.999542   367A      4.010814  
     368A      4.028277   369A      4.046553   370A      4.060459  
     371A      4.089332   372A      4.123108   373A      4.132200  
     374A      4.136329   375A      4.143083   376A      4.162398  
     377A      4.173622   378A      4.180755   379A      4.198274  
     380A      4.204476   381A      4.226953   382A      4.241263  
     383A      4.262534   384A      4.276097   385A      4.300034  
     386A      4.316089   387A      4.336438   388A      4.341164  
     389A      4.355170   390A      4.374746   391A      4.393508  
     392A      4.409528   393A      4.442500   394A      4.460993  
     395A      4.479653   396A      4.503689   397A      4.517140  
     398A      4.528224   399A      4.545586   400A      4.552649  
     401A      4.586636   402A      4.595712   403A      4.596985  
     404A      4.611904   405A      4.618676   406A      4.641425  
     407A      4.663506   408A      4.670037   409A      4.690650  
     410A      4.696664   411A      4.707292   412A      4.718973  
     413A      4.735272   414A      4.753975   415A      4.772436  
     416A      4.800499   417A      4.815581   418A      4.845548  
     419A      4.851702   420A      4.869620   421A      4.886057  
     422A      4.894930   423A      4.909669   424A      4.947644  
     425A      4.951465   426A      4.972653   427A      4.994858  
     428A      5.005796   429A      5.035497   430A      5.045299  
     431A      5.051040   432A      5.065288   433A      5.075714  
     434A      5.085972   435A      5.108532   436A      5.141101  
     437A      5.161305   438A      5.168489   439A      5.183400  
     440A      5.196043   441A      5.212188   442A      5.242460  
     443A      5.261630   444A      5.280453   445A      5.305829  
     446A      5.329724   447A      5.346450   448A      5.361591  
     449A      5.376550   450A      5.382091   451A      5.399007  
     452A      5.408667   453A      5.422114   454A      5.448027  
     455A      5.487725   456A      5.498663   457A      5.514616  
     458A      5.534721   459A      5.544521   460A      5.562704  
     461A      5.585832   462A      5.592636   463A      5.597999  
     464A      5.626208   465A      5.649883   466A      5.657577  
     467A      5.685455   468A      5.697715   469A      5.725244  
     470A      5.755706   471A      5.769991   472A      5.777156  
     473A      5.798442   474A      5.830334   475A      5.848937  
     476A      5.879045   477A      5.921319   478A      5.975929  
     479A      6.006201   480A      6.045504   481A      6.065209  
     482A      6.087679   483A      6.102210   484A      6.117649  
     485A      6.162067   486A      6.177058   487A      6.218469  
     488A      6.234000   489A      6.246533   490A      6.283254  
     491A      6.316172   492A      6.370829   493A      6.452856  
     494A      6.473847   495A      6.527329   496A      6.710452  
     497A      6.741357   498A      6.784669   499A      6.824846  
     500A      6.876590   501A      6.902387   502A      6.937671  
     503A      6.946247   504A      6.972185   505A      7.020423  
     506A      7.075192   507A      7.132146   508A      7.151570  
     509A      7.218848   510A      7.367033   511A      7.372287  
     512A      7.401962   513A      7.528901   514A      7.542863  
     515A      7.615225   516A      7.783864   517A      7.815901  
     518A      7.843942   519A      7.850016   520A      7.866381  
     521A      7.915577   522A      7.946470   523A      7.964830  
     524A      8.020484   525A      8.117705   526A      8.157836  
     527A      8.256273   528A      8.264429   529A      8.281435  
     530A      8.369821   531A      8.403473   532A      8.598601  
     533A      8.618205   534A      8.914824   535A      9.031145  
     536A     10.025686   537A     10.116216   538A     10.242319  
     539A     10.392392   540A     10.655286   541A     10.732236  
     542A     11.067633   543A     12.018238   544A     12.490967  
     545A     13.322303   546A     14.117881   547A     16.041358  
     548A     18.241156   549A     18.754650   550A     52.999402  
     551A     54.485054   552A     66.942244  

    Final Occupation by Irrep:
              A 
    DOCC [    13 ]
    NA   [    13 ]
    NB   [    13 ]

  @DF-RHF Final Energy:  -154.14555942781817

   => Energetics <=

    Nuclear Repulsion Energy =             82.2472748419211683
    One-Electron Energy =                -372.4640883757936081
    Two-Electron Energy =                 136.0712541060542549
    Total Energy =                       -154.1455594278181707

Computation Completed


Properties will be evaluated at   0.000000,   0.000000,   0.000000 [a0]

Properties computed using the SCF density matrix


 Multipole Moments:

 ------------------------------------------------------------------------------------
     Multipole            Electronic (a.u.)      Nuclear  (a.u.)        Total (a.u.)
 ------------------------------------------------------------------------------------

 L = 1.  Multiply by 2.5417464519 to convert [e a0] to [Debye]
 Dipole X            :        -99.5944648           99.1271089           -0.4673559
 Dipole Y            :          0.3572427           -0.1883320            0.1689107
 Dipole Z            :          2.5548886           -2.1200044            0.4348842
 Magnitude           :                                                    0.6603610

 ------------------------------------------------------------------------------------

*** tstop() called on moses-razer at Sat Mar  1 23:16:58 2025
Module time:
	user time   =      95.02 seconds =       1.58 minutes
	system time =       1.33 seconds =       0.02 minutes
	total time  =         97 seconds =       1.62 minutes
Total time:
	user time   =     271.29 seconds =       4.52 minutes
	system time =       5.66 seconds =       0.09 minutes
	total time  =        277 seconds =       4.62 minutes

  //>>>>>>>>>>>>>>>>>>>>>>>>>>>>>>>>>>>//
  //            Monomer B HF           //
  //<<<<<<<<<<<<<<<<<<<<<<<<<<<<<<<<<<<//

   => Libint2 <=

    Primary   basis highest AM E, G, H:  5, 4, 3
    Auxiliary basis highest AM E, G, H:  6, 5, 4
    Onebody   basis highest AM E, G, H:  6, 5, 4
    Solid Harmonics ordering:            gaussian

*** tstart() called on moses-razer
*** at Sat Mar  1 23:16:58 2025

   => Loading Basis Set <=

    Name: AUG-CC-PVTZ
    Role: ORBITAL
    Keyword: BASIS
    atoms 1-2, 10-11 entry C          line   239 file /home/kchung25/anaconda3/envs/p415env/share/psi4/basis/aug-cc-pvtz.gbs 
    atoms 3, 12      entry O          line   331 file /home/kchung25/anaconda3/envs/p415env/share/psi4/basis/aug-cc-pvtz.gbs 
    atoms 4-9, 13-18 entry H          line    40 file /home/kchung25/anaconda3/envs/p415env/share/psi4/basis/aug-cc-pvtz.gbs 


         ---------------------------------------------------------
                                   SCF
               by Justin Turney, Rob Parrish, Andy Simmonett
                          and Daniel G. A. Smith
                              RHF Reference
                        1 Threads,   9536 MiB Core
         ---------------------------------------------------------

  ==> Geometry <==

    Molecular point group: c1
    Full point group: C1

    Geometry (in Angstrom), charge = 0, multiplicity = 1:

       Center              X                  Y                   Z               Mass       
    ------------   -----------------  -----------------  -----------------  -----------------
      Gh(C)           1.664047000000    -1.098168000000    -0.483407000000    12.000000000000
      Gh(C)           1.645436000000     0.172621000000     0.316483000000    12.000000000000
      Gh(O)           2.803731000000     0.913154000000    -0.006258000000    15.994914619570
      Gh(H)           2.810292000000     1.720736000000     0.510250000000     1.007825032230
      Gh(H)           0.786578000000    -1.702859000000    -0.249187000000     1.007825032230
      Gh(H)           2.561646000000    -1.677310000000    -0.258297000000     1.007825032230
      Gh(H)           1.668226000000    -0.876731000000    -1.553158000000     1.007825032230
      Gh(H)           1.608592000000    -0.061279000000     1.389819000000     1.007825032230
      Gh(H)           0.733727000000     0.745832000000     0.090323000000     1.007825032230
         C           -2.523852000000     1.090249000000    -0.196029000000    12.000000000000
         C           -1.977141000000    -0.294805000000    -0.431995000000    12.000000000000
         O           -1.428621000000    -0.864125000000     0.736200000000    15.994914619570
         H           -2.110319000000    -0.890671000000     1.412321000000     1.007825032230
         H           -2.907636000000     1.526431000000    -1.120447000000     1.007825032230
         H           -1.745682000000     1.746778000000     0.199147000000     1.007825032230
         H           -3.345613000000     1.068408000000     0.525988000000     1.007825032230
         H           -1.158836000000    -0.264706000000    -1.157724000000     1.007825032230
         H           -2.752790000000    -0.946241000000    -0.858887000000     1.007825032230

  Running in c1 symmetry.

  Rotational constants: A =      0.16946  B =      0.03912  C =      0.03520 [cm^-1]
  Rotational constants: A =   5080.13588  B =   1172.85916  C =   1055.30552 [MHz]
  Nuclear repulsion =   82.141193909958645

  Charge       = 0
  Multiplicity = 1
  Electrons    = 26
  Nalpha       = 13
  Nbeta        = 13

  ==> Algorithm <==

  SCF Algorithm Type is DF.
  DIIS enabled.
  MOM disabled.
  Fractional occupation disabled.
  Guess Type is SAD.
  Energy threshold   = 1.00e-08
  Density threshold  = 1.00e-08
  Integral threshold = 1.00e-12

  ==> Primary Basis <==

  Basis Set: AUG-CC-PVTZ
    Blend: AUG-CC-PVTZ
    Number of shells: 192
    Number of basis functions: 552
    Number of Cartesian functions: 630
    Spherical Harmonics?: true
    Max angular momentum: 3

   => Loading Basis Set <=

    Name: (AUG-CC-PVTZ AUX)
    Role: JKFIT
    Keyword: DF_BASIS_SCF
    atoms 1-2, 10-11 entry C          line   162 file /home/kchung25/anaconda3/envs/p415env/share/psi4/basis/aug-cc-pvtz-jkfit.gbs 
    atoms 3, 12      entry O          line   286 file /home/kchung25/anaconda3/envs/p415env/share/psi4/basis/aug-cc-pvtz-jkfit.gbs 
    atoms 4-9, 13-18 entry H          line    70 file /home/kchung25/anaconda3/envs/p415env/share/psi4/basis/aug-cc-pvtz-jkfit.gbs 

  ==> Integral Setup <==

  ==> DiskDFJK: Density-Fitted J/K Matrices <==

    J tasked:                  Yes
    K tasked:                  Yes
    wK tasked:                  No
    OpenMP threads:              1
    Integrals threads:           1
    Memory [MiB]:             7152
    Algorithm:                Core
    Integral Cache:           LOAD
    Schwarz Cutoff:          1E-12
    Fitting Condition:       1E-10

   => Auxiliary Basis Set <=

  Basis Set: (AUG-CC-PVTZ AUX)
    Blend: AUG-CC-PVTZ-JKFIT
    Number of shells: 348
    Number of basis functions: 1176
    Number of Cartesian functions: 1446
    Spherical Harmonics?: true
    Max angular momentum: 4

  Minimum eigenvalue in the overlap matrix is 7.5027021414E-06.
  Reciprocal condition number of the overlap matrix is 4.0637977870E-07.
    Using symmetric orthogonalization.

  ==> Pre-Iterations <==

  SCF Guess: Superposition of Atomic Densities via on-the-fly atomic UHF (no occupation information).

   -------------------------
    Irrep   Nso     Nmo    
   -------------------------
     A        552     552 
   -------------------------
    Total     552     552
   -------------------------

  ==> Iterations <==

                           Total Energy        Delta E     RMS |[F,P]|

   @DF-RHF iter SAD:  -153.45472419647018   -1.53455e+02   0.00000e+00 
   @DF-RHF iter   1:  -154.00357418285225   -5.48850e-01   9.37826e-04 ADIIS/DIIS
   @DF-RHF iter   2:  -154.11540064430221   -1.11826e-01   4.95717e-04 ADIIS/DIIS
   @DF-RHF iter   3:  -154.14339223530186   -2.79916e-02   8.38224e-05 DIIS
   @DF-RHF iter   4:  -154.14496868537242   -1.57645e-03   3.20843e-05 DIIS
   @DF-RHF iter   5:  -154.14515457323304   -1.85888e-04   6.20647e-06 DIIS
   @DF-RHF iter   6:  -154.14516484452923   -1.02713e-05   1.42249e-06 DIIS
   @DF-RHF iter   7:  -154.14516557632336   -7.31794e-07   4.05366e-07 DIIS
   @DF-RHF iter   8:  -154.14516563115487   -5.48315e-08   1.28178e-07 DIIS
   @DF-RHF iter   9:  -154.14516563731581   -6.16095e-09   3.28967e-08 DIIS
   @DF-RHF iter  10:  -154.14516563774919   -4.33374e-10   6.32229e-09 DIIS
  Energy and wave function converged.


  ==> Post-Iterations <==

    Orbital Energies [Eh]
    ---------------------

    Doubly Occupied:                                                      

       1A    -20.555302     2A    -11.273522     3A    -11.218202  
       4A     -1.361793     5A     -1.014432     6A     -0.848468  
       7A     -0.687438     8A     -0.625733     9A     -0.611522  
      10A     -0.544127    11A     -0.526266    12A     -0.480697  
      13A     -0.443109  

    Virtual:                                                              

      14A      0.024394    15A      0.032638    16A      0.036135  
      17A      0.037960    18A      0.049842    19A      0.053382  
      20A      0.055667    21A      0.063487    22A      0.065424  
      23A      0.077356    24A      0.079206    25A      0.085668  
      26A      0.103611    27A      0.107118    28A      0.116829  
      29A      0.118808    30A      0.128812    31A      0.129604  
      32A      0.131383    33A      0.137933    34A      0.143053  
      35A      0.146761    36A      0.154576    37A      0.158811  
      38A      0.164918    39A      0.172810    40A      0.177982  
      41A      0.189683    42A      0.194225    43A      0.206924  
      44A      0.209529    45A      0.219173    46A      0.227632  
      47A      0.232007    48A      0.234633    49A      0.252636  
      50A      0.260586    51A      0.268986    52A      0.279366  
      53A      0.284675    54A      0.286725    55A      0.297025  
      56A      0.301481    57A      0.311704    58A      0.312638  
      59A      0.317582    60A      0.320862    61A      0.329098  
      62A      0.334594    63A      0.343999    64A      0.345280  
      65A      0.352363    66A      0.354772    67A      0.360464  
      68A      0.366860    69A      0.368591    70A      0.376777  
      71A      0.379519    72A      0.383625    73A      0.391226  
      74A      0.396729    75A      0.404726    76A      0.407833  
      77A      0.422524    78A      0.424067    79A      0.428120  
      80A      0.437085    81A      0.438286    82A      0.444045  
      83A      0.451468    84A      0.454107    85A      0.460240  
      86A      0.466911    87A      0.470089    88A      0.475626  
      89A      0.483067    90A      0.490744    91A      0.499678  
      92A      0.504777    93A      0.506558    94A      0.511267  
      95A      0.514998    96A      0.524357    97A      0.528446  
      98A      0.538683    99A      0.547790   100A      0.549096  
     101A      0.556415   102A      0.565045   103A      0.575357  
     104A      0.580590   105A      0.581133   106A      0.589037  
     107A      0.595840   108A      0.603721   109A      0.617074  
     110A      0.620245   111A      0.630296   112A      0.636609  
     113A      0.640800   114A      0.652567   115A      0.658650  
     116A      0.669426   117A      0.677380   118A      0.678782  
     119A      0.700945   120A      0.708925   121A      0.709787  
     122A      0.721656   123A      0.735587   124A      0.745736  
     125A      0.761962   126A      0.772468   127A      0.773921  
     128A      0.790851   129A      0.799580   130A      0.810668  
     131A      0.816474   132A      0.833514   133A      0.839050  
     134A      0.849782   135A      0.856909   136A      0.863871  
     137A      0.874940   138A      0.882278   139A      0.893300  
     140A      0.900205   141A      0.906327   142A      0.915271  
     143A      0.920035   144A      0.928844   145A      0.944602  
     146A      0.950713   147A      0.961233   148A      0.967564  
     149A      0.969164   150A      0.976021   151A      0.988307  
     152A      0.990768   153A      0.999415   154A      1.009085  
     155A      1.013020   156A      1.016433   157A      1.030098  
     158A      1.036508   159A      1.042218   160A      1.055681  
     161A      1.064307   162A      1.069760   163A      1.070612  
     164A      1.081765   165A      1.085446   166A      1.091500  
     167A      1.100703   168A      1.106677   169A      1.110964  
     170A      1.118026   171A      1.122856   172A      1.127758  
     173A      1.141386   174A      1.146445   175A      1.156512  
     176A      1.160503   177A      1.164939   178A      1.167780  
     179A      1.173095   180A      1.184390   181A      1.188374  
     182A      1.202105   183A      1.204118   184A      1.208775  
     185A      1.226938   186A      1.232238   187A      1.237009  
     188A      1.242049   189A      1.253403   190A      1.257776  
     191A      1.265079   192A      1.267345   193A      1.270925  
     194A      1.281727   195A      1.296794   196A      1.307575  
     197A      1.319683   198A      1.323582   199A      1.328608  
     200A      1.343722   201A      1.348740   202A      1.355973  
     203A      1.369159   204A      1.371434   205A      1.379697  
     206A      1.387034   207A      1.399589   208A      1.405989  
     209A      1.413377   210A      1.422356   211A      1.436222  
     212A      1.445755   213A      1.456272   214A      1.467060  
     215A      1.471946   216A      1.483158   217A      1.494142  
     218A      1.503228   219A      1.516865   220A      1.522235  
     221A      1.530540   222A      1.544659   223A      1.547829  
     224A      1.572103   225A      1.578446   226A      1.585797  
     227A      1.600274   228A      1.605896   229A      1.614919  
     230A      1.626944   231A      1.637092   232A      1.639267  
     233A      1.659517   234A      1.663888   235A      1.680733  
     236A      1.691804   237A      1.703293   238A      1.714999  
     239A      1.722565   240A      1.738469   241A      1.740749  
     242A      1.750928   243A      1.762730   244A      1.783089  
     245A      1.795622   246A      1.809366   247A      1.819735  
     248A      1.829418   249A      1.837329   250A      1.843660  
     251A      1.850159   252A      1.856947   253A      1.871716  
     254A      1.880057   255A      1.900844   256A      1.907507  
     257A      1.917799   258A      1.930710   259A      1.939524  
     260A      1.945070   261A      1.949218   262A      1.977619  
     263A      1.982280   264A      1.993749   265A      2.003184  
     266A      2.018972   267A      2.027585   268A      2.050414  
     269A      2.054956   270A      2.067508   271A      2.071760  
     272A      2.082543   273A      2.100191   274A      2.106538  
     275A      2.134850   276A      2.146369   277A      2.154488  
     278A      2.175917   279A      2.185918   280A      2.201009  
     281A      2.203362   282A      2.215753   283A      2.220942  
     284A      2.230309   285A      2.253880   286A      2.256387  
     287A      2.275668   288A      2.279864   289A      2.290032  
     290A      2.293009   291A      2.316068   292A      2.337179  
     293A      2.355950   294A      2.392566   295A      2.401280  
     296A      2.419650   297A      2.445091   298A      2.447755  
     299A      2.465630   300A      2.480107   301A      2.503900  
     302A      2.527430   303A      2.535756   304A      2.575121  
     305A      2.595489   306A      2.625325   307A      2.640564  
     308A      2.663489   309A      2.669792   310A      2.693702  
     311A      2.716393   312A      2.739685   313A      2.745131  
     314A      2.764768   315A      2.775387   316A      2.781101  
     317A      2.798746   318A      2.812111   319A      2.821532  
     320A      2.841461   321A      2.879558   322A      2.887085  
     323A      2.915504   324A      2.934141   325A      2.985012  
     326A      3.026018   327A      3.033567   328A      3.050017  
     329A      3.074610   330A      3.084163   331A      3.132857  
     332A      3.137898   333A      3.167352   334A      3.205623  
     335A      3.239704   336A      3.254040   337A      3.272730  
     338A      3.296715   339A      3.350043   340A      3.380261  
     341A      3.421134   342A      3.441522   343A      3.498153  
     344A      3.513934   345A      3.532607   346A      3.541569  
     347A      3.584390   348A      3.591247   349A      3.634035  
     350A      3.660211   351A      3.678487   352A      3.683936  
     353A      3.710551   354A      3.731181   355A      3.758301  
     356A      3.770220   357A      3.790100   358A      3.798743  
     359A      3.816557   360A      3.844580   361A      3.864646  
     362A      3.917999   363A      3.930512   364A      3.953818  
     365A      3.972526   366A      3.991971   367A      3.997035  
     368A      4.028032   369A      4.059774   370A      4.080948  
     371A      4.090642   372A      4.098008   373A      4.122499  
     374A      4.137083   375A      4.149205   376A      4.161703  
     377A      4.174155   378A      4.180648   379A      4.189932  
     380A      4.219345   381A      4.236216   382A      4.256143  
     383A      4.268119   384A      4.282166   385A      4.291764  
     386A      4.313879   387A      4.325593   388A      4.365705  
     389A      4.380646   390A      4.390399   391A      4.413848  
     392A      4.418564   393A      4.469759   394A      4.473401  
     395A      4.477450   396A      4.494894   397A      4.514532  
     398A      4.549001   399A      4.560313   400A      4.580726  
     401A      4.585668   402A      4.602801   403A      4.608064  
     404A      4.617054   405A      4.640310   406A      4.650998  
     407A      4.653271   408A      4.684880   409A      4.699525  
     410A      4.718370   411A      4.733304   412A      4.747927  
     413A      4.758237   414A      4.767864   415A      4.807658  
     416A      4.820442   417A      4.835948   418A      4.854666  
     419A      4.863301   420A      4.870435   421A      4.893377  
     422A      4.901894   423A      4.932028   424A      4.942206  
     425A      4.950725   426A      4.952558   427A      4.978554  
     428A      5.001754   429A      5.018890   430A      5.029097  
     431A      5.045607   432A      5.046899   433A      5.064413  
     434A      5.082490   435A      5.090814   436A      5.115559  
     437A      5.144024   438A      5.155192   439A      5.179325  
     440A      5.190265   441A      5.223167   442A      5.232580  
     443A      5.253207   444A      5.264913   445A      5.285773  
     446A      5.323969   447A      5.342922   448A      5.371122  
     449A      5.383867   450A      5.392695   451A      5.397703  
     452A      5.427586   453A      5.463712   454A      5.471383  
     455A      5.487297   456A      5.536265   457A      5.544371  
     458A      5.547127   459A      5.567633   460A      5.577085  
     461A      5.589286   462A      5.613407   463A      5.632882  
     464A      5.636462   465A      5.652410   466A      5.665724  
     467A      5.694286   468A      5.707095   469A      5.730000  
     470A      5.760670   471A      5.773786   472A      5.790325  
     473A      5.799155   474A      5.852693   475A      5.870229  
     476A      5.895653   477A      5.954247   478A      6.009805  
     479A      6.022112   480A      6.046722   481A      6.087394  
     482A      6.106153   483A      6.131549   484A      6.163953  
     485A      6.205396   486A      6.208446   487A      6.221239  
     488A      6.263298   489A      6.285413   490A      6.288712  
     491A      6.314384   492A      6.331981   493A      6.421353  
     494A      6.501486   495A      6.559883   496A      6.737529  
     497A      6.772853   498A      6.795851   499A      6.834335  
     500A      6.878221   501A      6.896101   502A      6.949368  
     503A      6.988544   504A      7.025328   505A      7.072516  
     506A      7.108216   507A      7.158446   508A      7.203611  
     509A      7.214374   510A      7.314712   511A      7.392673  
     512A      7.406953   513A      7.526585   514A      7.554124  
     515A      7.738119   516A      7.768902   517A      7.838419  
     518A      7.861800   519A      7.873533   520A      7.879733  
     521A      7.894453   522A      7.912269   523A      7.975517  
     524A      8.016955   525A      8.118270   526A      8.191757  
     527A      8.201856   528A      8.292104   529A      8.362794  
     530A      8.400918   531A      8.416099   532A      8.592096  
     533A      8.663044   534A      8.907098   535A      9.092437  
     536A      9.938892   537A     10.107180   538A     10.375157  
     539A     10.418823   540A     10.435953   541A     10.839779  
     542A     11.112991   543A     11.939578   544A     12.307840  
     545A     13.303984   546A     14.141044   547A     16.409655  
     548A     17.834703   549A     18.725019   550A     53.534249  
     551A     54.869592   552A     66.087075  

    Final Occupation by Irrep:
              A 
    DOCC [    13 ]
    NA   [    13 ]
    NB   [    13 ]

  @DF-RHF Final Energy:  -154.14516563774919

   => Energetics <=

    Nuclear Repulsion Energy =             82.1411939099586448
    One-Electron Energy =                -372.1914915614235042
    Two-Electron Energy =                 135.9051320137156722
    Total Energy =                       -154.1451656377491872

Computation Completed


Properties will be evaluated at   0.000000,   0.000000,   0.000000 [a0]

Properties computed using the SCF density matrix


 Multipole Moments:

 ------------------------------------------------------------------------------------
     Multipole            Electronic (a.u.)      Nuclear  (a.u.)        Total (a.u.)
 ------------------------------------------------------------------------------------

 L = 1.  Multiply by 2.5417464519 to convert [e a0] to [Debye]
 Dipole X            :         98.4793060          -99.1270995           -0.6477935
 Dipole Y            :          0.0854469            0.1883358            0.2737826
 Dipole Z            :         -2.2180693            2.1199968           -0.0980725
 Magnitude           :                                                    0.7100785

 ------------------------------------------------------------------------------------

*** tstop() called on moses-razer at Sat Mar  1 23:18:34 2025
Module time:
	user time   =      94.28 seconds =       1.57 minutes
	system time =       1.37 seconds =       0.02 minutes
	total time  =         96 seconds =       1.60 minutes
Total time:
	user time   =     365.57 seconds =       6.09 minutes
	system time =       7.03 seconds =       0.12 minutes
	total time  =        373 seconds =       6.22 minutes
  Constructing Basis Sets for SAPT...

   => Loading Basis Set <=

    Name: (AUG-CC-PVTZ AUX)
    Role: RIFIT
    Keyword: DF_BASIS_SAPT
    atoms 1-2, 10-11 entry C          line   148 file /home/kchung25/anaconda3/envs/p415env/share/psi4/basis/aug-cc-pvtz-ri.gbs 
    atoms 3, 12      entry O          line   264 file /home/kchung25/anaconda3/envs/p415env/share/psi4/basis/aug-cc-pvtz-ri.gbs 
    atoms 4-9, 13-18 entry H          line    30 file /home/kchung25/anaconda3/envs/p415env/share/psi4/basis/aug-cc-pvtz-ri.gbs 

   => Loading Basis Set <=

    Name: (AUG-CC-PVTZ AUX)
    Role: JKFIT
    Keyword: DF_BASIS_ELST
    atoms 1-2, 10-11 entry C          line   162 file /home/kchung25/anaconda3/envs/p415env/share/psi4/basis/aug-cc-pvtz-jkfit.gbs 
    atoms 3, 12      entry O          line   286 file /home/kchung25/anaconda3/envs/p415env/share/psi4/basis/aug-cc-pvtz-jkfit.gbs 
    atoms 4-9, 13-18 entry H          line    70 file /home/kchung25/anaconda3/envs/p415env/share/psi4/basis/aug-cc-pvtz-jkfit.gbs 


  //>>>>>>>>>>>>>>>>>>>>>>>>>>>>>>>>>>>//
  //               SAPT2+              //
  //<<<<<<<<<<<<<<<<<<<<<<<<<<<<<<<<<<<//


*** tstart() called on moses-razer
*** at Sat Mar  1 23:18:34 2025

        SAPT2+  
    Ed Hohenstein
     6 June 2009

      Orbital Information
  --------------------------
    NSO        =       552
    NMO        =       552
    NRI        =      1188
    NOCC A     =        13
    NOCC B     =        13
    FOCC A     =         0
    FOCC B     =         0
    NVIR A     =       539
    NVIR B     =       539

    Estimated memory usage: 3939.5 MB

    Natural Orbital Cutoff:   1.000E-06
    Disp(T3) Truncation:            Yes
    CCD (vv|vv) Truncation:         Yes
    MBPT T2 Truncation:             Yes

    Monomer A: 308 virtual orbitals dropped
    Monomer B: 306 virtual orbitals dropped

    Elst10,r            =    -0.002927605902 [Eh]
    Exch10 (S^2)        =     0.005482085593 [Eh]
    Exch10              =     0.005494436765 [Eh]
    Ind20,r (A<-B)      =    -0.001219905810 [Eh]
    Ind20,r (B<-A)      =    -0.000399653684 [Eh]
    Ind20,r             =    -0.001619559494 [Eh]
    Exch-Ind20,r (A<-B) =     0.000814587900 [Eh]
    Exch-Ind20,r (B<-A) =     0.000316363359 [Eh]
    Exch-Ind20,r        =     0.001130951259 [Eh]
    Disp20              =    -0.006123588510 [Eh]
    Disp20 (NO)         =    -0.005479153968 [Eh]
    Exch-Disp20         =     0.000626727384 [Eh]
    Elst12,r            =    -0.000314115193 [Eh]
    Exch11              =     0.000048363460 [Eh]
    Exch12              =     0.000761697101 [Eh]
    Ind22               =    -0.000205729705 [Eh]
    Disp21              =     0.000363160838 [Eh]
    Disp22 (SDQ)        =     0.000124486737 [Eh]

    (i =   1 of  13)        276 seconds
    (i =   2 of  13)        510 seconds
    (i =   3 of  13)        745 seconds
    (i =   4 of  13)       1103 seconds
    (i =   5 of  13)       1364 seconds
    (i =   6 of  13)       1638 seconds
    (i =   7 of  13)       1972 seconds
    (i =   8 of  13)       2278 seconds
    (i =   9 of  13)       2609 seconds
    (i =  10 of  13)       2854 seconds
    (i =  11 of  13)       3093 seconds
    (i =  12 of  13)       3331 seconds
    (i =  13 of  13)       3569 seconds

    Disp220 (T)         =    -0.000397868348 [Eh]

    (i =   1 of  13)        271 seconds
    (i =   2 of  13)        510 seconds
    (i =   3 of  13)        750 seconds
    (i =   4 of  13)        991 seconds
    (i =   5 of  13)       1231 seconds
    (i =   6 of  13)       1471 seconds
    (i =   7 of  13)       1712 seconds
    (i =   8 of  13)       1952 seconds
    (i =   9 of  13)       2194 seconds
    (i =  10 of  13)       2434 seconds
    (i =  11 of  13)       2674 seconds
    (i =  12 of  13)       2913 seconds
    (i =  13 of  13)       3153 seconds

    Disp202 (T)         =    -0.000465266319 [Eh]

    Disp22 (T)          =    -0.000863134666 [Eh]

    Est. Disp220 (T)    =    -0.000444663913 [Eh]
    Est. Disp202 (T)    =    -0.000519988943 [Eh]

    Est. Disp22 (T)     =    -0.000964652856 [Eh]

    SAPT Results 
  --------------------------------------------------------------------------------------------------------
    Electrostatics                 -3.24172109 [mEh]      -2.03421070 [kcal/mol]      -8.51113756 [kJ/mol]
      Elst10,r                     -2.92760590 [mEh]      -1.83710044 [kcal/mol]      -7.68642824 [kJ/mol]
      Elst12,r                     -0.31411519 [mEh]      -0.19711026 [kcal/mol]      -0.82470932 [kJ/mol]

    Exchange                        6.30449733 [mEh]       3.95613180 [kcal/mol]      16.55245545 [kJ/mol]
      Exch10                        5.49443676 [mEh]       3.44781112 [kcal/mol]      14.42564174 [kJ/mol]
      Exch10(S^2)                   5.48208559 [mEh]       3.44006065 [kcal/mol]      14.39321374 [kJ/mol]
      Exch11(S^2)                   0.04836346 [mEh]       0.03034853 [kcal/mol]       0.12697825 [kJ/mol]
      Exch12(S^2)                   0.76169710 [mEh]       0.47797215 [kcal/mol]       1.99983546 [kJ/mol]

    Induction                      -0.94865110 [mEh]      -0.59528755 [kcal/mol]      -2.49068312 [kJ/mol]
      Ind20,r                      -1.61955949 [mEh]      -1.01628893 [kcal/mol]      -4.25215287 [kJ/mol]
      Ind22                        -0.20572970 [mEh]      -0.12909734 [kcal/mol]      -0.54014326 [kJ/mol]
      Exch-Ind20,r                  1.13095126 [mEh]       0.70968263 [kcal/mol]       2.96931212 [kJ/mol]
      Exch-Ind22                    0.14366269 [mEh]       0.09014970 [kcal/mol]       0.37718633 [kJ/mol]
      delta HF,r (2)               -0.39797585 [mEh]      -0.24973361 [kcal/mol]      -1.04488544 [kJ/mol]

    Dispersion                     -5.97386641 [mEh]      -3.74865777 [kcal/mol]     -15.68438409 [kJ/mol]
      Disp20                       -6.12358851 [mEh]      -3.84260980 [kcal/mol]     -16.07747942 [kJ/mol]
      Disp21                        0.36316084 [mEh]       0.22788687 [kcal/mol]       0.95347865 [kJ/mol]
      Disp22 (SDQ)                  0.12448674 [mEh]       0.07811661 [kcal/mol]       0.32683988 [kJ/mol]
      Disp22 (T)                   -0.86313467 [mEh]      -0.54162518 [kcal/mol]      -2.26615975 [kJ/mol]
      Est. Disp22 (T)              -0.96465286 [mEh]      -0.60532881 [kcal/mol]      -2.53269573 [kJ/mol]
      Exch-Disp20                   0.62672738 [mEh]       0.39327737 [kcal/mol]       1.64547252 [kJ/mol]

  Total HF                          1.68024678 [mEh]       1.05437077 [kcal/mol]       4.41148732 [kJ/mol]
  Total SAPT0                      -3.81661434 [mEh]      -2.39496166 [kcal/mol]     -10.02051958 [kJ/mol]
  Total SAPT2                      -3.38273599 [mEh]      -2.12269888 [kcal/mol]      -8.88137213 [kJ/mol]
  Total SAPT2+                     -3.85974128 [mEh]      -2.42202422 [kcal/mol]     -10.13374932 [kJ/mol]

  Special recipe for scaled SAPT0 (see Manual):
    Electrostatics sSAPT0          -2.92760590 [mEh]      -1.83710044 [kcal/mol]      -7.68642824 [kJ/mol]
    Exchange sSAPT0                 5.49443676 [mEh]       3.44781112 [kcal/mol]      14.42564174 [kJ/mol]
    Induction sSAPT0               -0.87892273 [mEh]      -0.55153234 [kcal/mol]      -2.30761130 [kJ/mol]
    Dispersion sSAPT0              -5.49261551 [mEh]      -3.44666827 [kcal/mol]     -14.42086004 [kJ/mol]
  Total sSAPT0                     -3.80470738 [mEh]      -2.38748992 [kcal/mol]      -9.98925784 [kJ/mol]
  --------------------------------------------------------------------------------------------------------

*** tstop() called on moses-razer at Sun Mar  2 01:48:00 2025
Module time:
	user time   =    8803.72 seconds =     146.73 minutes
	system time =     137.07 seconds =       2.28 minutes
	total time  =       8966 seconds =     149.43 minutes
Total time:
	user time   =    9169.48 seconds =     152.82 minutes
	system time =     144.10 seconds =       2.40 minutes
	total time  =       9339 seconds =     155.65 minutes

    Psi4 stopped on: Sunday, 02 March 2025 01:48AM
    Psi4 wall time for execution: 2:35:40.27

*** Psi4 exiting successfully. Buy a developer a beer!
