
    -----------------------------------------------------------------------
          Psi4: An Open-Source Ab Initio Electronic Structure Package
                               Psi4 1.9.1 release

                         Git: Rev {} zzzzzzz 


    D. G. A. Smith, L. A. Burns, A. C. Simmonett, R. M. Parrish,
    M. C. Schieber, R. Galvelis, P. Kraus, H. Kruse, R. Di Remigio,
    A. Alenaizan, A. M. James, S. Lehtola, J. P. Misiewicz, M. Scheurer,
    R. A. Shaw, J. B. Schriber, Y. Xie, Z. L. Glick, D. A. Sirianni,
    J. S. O'Brien, J. M. Waldrop, A. Kumar, E. G. Hohenstein,
    B. P. Pritchard, B. R. Brooks, H. F. Schaefer III, A. Yu. Sokolov,
    K. Patkowski, A. E. DePrince III, U. Bozkaya, R. A. King,
    F. A. Evangelista, J. M. Turney, T. D. Crawford, C. D. Sherrill,
    J. Chem. Phys. 152(18) 184108 (2020). https://doi.org/10.1063/5.0006002

                            Additional Code Authors
    E. T. Seidl, C. L. Janssen, E. F. Valeev, M. L. Leininger,
    J. F. Gonthier, R. M. Richard, H. R. McAlexander, M. Saitow, X. Wang,
    P. Verma, M. H. Lechner, A. Jiang, S. Behnle, A. G. Heide,
    M. F. Herbst, and D. L. Poole

             Previous Authors, Complete List of Code Contributors,
                       and Citations for Specific Modules
    https://github.com/psi4/psi4/blob/master/codemeta.json
    https://github.com/psi4/psi4/graphs/contributors
    http://psicode.org/psi4manual/master/introduction.html#citing-psifour

    -----------------------------------------------------------------------


    Psi4 started on: Saturday, 01 March 2025 03:20PM

    Process ID: 57349
    Host:       Moses-MBP.lan
    PSIDATADIR: /Users/moseschung/miniconda3/envs/psi4/share/psi4
    Memory:     500.0 MiB
    Threads:    8
    
  ==> Input File <==

--------------------------------------------------------------------------
MEMORY 10 GB

molecule dimer {
0 1
C    1.516213   0.417723   0.442144
C    2.871854  -0.240916   0.502599
O    3.467762  -0.364839  -0.767183
H    3.553027   0.512554  -1.148413
H    1.054212   0.467584   1.430942
H    0.850827  -0.136694  -0.223863
H    1.596600   1.441461   0.062946
H    2.783288  -1.258406   0.891720
H    3.528345   0.304796   1.195929
--
0 1
C   -2.160843   1.157699  -0.183492
C   -2.171092  -0.335092   0.031517
O   -3.472656  -0.871194   0.050728
H   -3.902426  -0.651722  -0.779695
H   -1.142870   1.552980  -0.150083
H   -2.753797   1.659870   0.583223
H   -2.583803   1.414199  -1.159463
H   -1.730863  -0.583014   1.001293
H   -1.550170  -0.831830  -0.729495

units ang
no_reorient
no_com
symmetry c1
}

set {
basis        aug-cc-pVTZ
scf_type     df
}

energy("sapt2+")
--------------------------------------------------------------------------

  Memory set to   9.313 GiB by Python driver.

Scratch directory: /tmp/
   => Loading Basis Set <=

    Name: AUG-CC-PVTZ
    Role: ORBITAL
    Keyword: BASIS
    atoms 1-2, 10-11 entry C          line   239 file /Users/moseschung/miniconda3/envs/psi4/share/psi4/basis/aug-cc-pvtz.gbs 
    atoms 3, 12      entry O          line   331 file /Users/moseschung/miniconda3/envs/psi4/share/psi4/basis/aug-cc-pvtz.gbs 
    atoms 4-9, 13-18 entry H          line    40 file /Users/moseschung/miniconda3/envs/psi4/share/psi4/basis/aug-cc-pvtz.gbs 

   => Loading Basis Set <=

    Name: AUG-CC-PVTZ
    Role: ORBITAL
    Keyword: BASIS
    atoms 1-2, 10-11 entry C          line   239 file /Users/moseschung/miniconda3/envs/psi4/share/psi4/basis/aug-cc-pvtz.gbs 
    atoms 3, 12      entry O          line   331 file /Users/moseschung/miniconda3/envs/psi4/share/psi4/basis/aug-cc-pvtz.gbs 
    atoms 4-9, 13-18 entry H          line    40 file /Users/moseschung/miniconda3/envs/psi4/share/psi4/basis/aug-cc-pvtz.gbs 


  //>>>>>>>>>>>>>>>>>>>>>>>>>>>>>>>>>>>//
  //              Dimer HF             //
  //<<<<<<<<<<<<<<<<<<<<<<<<<<<<<<<<<<<//

   => Libint2 <=

    Primary   basis highest AM E, G, H:  6, 6, 3
    Auxiliary basis highest AM E, G, H:  7, 7, 4
    Onebody   basis highest AM E, G, H:  -, -, -
    Solid Harmonics ordering:            Gaussian

*** tstart() called on Moses-MBP.lan
*** at Sat Mar  1 15:20:12 2025

   => Loading Basis Set <=

    Name: AUG-CC-PVTZ
    Role: ORBITAL
    Keyword: BASIS
    atoms 1-2, 10-11 entry C          line   239 file /Users/moseschung/miniconda3/envs/psi4/share/psi4/basis/aug-cc-pvtz.gbs 
    atoms 3, 12      entry O          line   331 file /Users/moseschung/miniconda3/envs/psi4/share/psi4/basis/aug-cc-pvtz.gbs 
    atoms 4-9, 13-18 entry H          line    40 file /Users/moseschung/miniconda3/envs/psi4/share/psi4/basis/aug-cc-pvtz.gbs 


         ---------------------------------------------------------
                                   SCF
               by Justin Turney, Rob Parrish, Andy Simmonett
                          and Daniel G. A. Smith
                              RHF Reference
                        8 Threads,   9536 MiB Core
         ---------------------------------------------------------

  ==> Geometry <==

    Molecular point group: c1
    Full point group: C1

    Geometry (in Angstrom), charge = 0, multiplicity = 1:

       Center              X                  Y                   Z               Mass       
    ------------   -----------------  -----------------  -----------------  -----------------
         C            1.516213000000     0.417723000000     0.442144000000    12.000000000000
         C            2.871854000000    -0.240916000000     0.502599000000    12.000000000000
         O            3.467762000000    -0.364839000000    -0.767183000000    15.994914619570
         H            3.553027000000     0.512554000000    -1.148413000000     1.007825032230
         H            1.054212000000     0.467584000000     1.430942000000     1.007825032230
         H            0.850827000000    -0.136694000000    -0.223863000000     1.007825032230
         H            1.596600000000     1.441461000000     0.062946000000     1.007825032230
         H            2.783288000000    -1.258406000000     0.891720000000     1.007825032230
         H            3.528345000000     0.304796000000     1.195929000000     1.007825032230
         C           -2.160843000000     1.157699000000    -0.183492000000    12.000000000000
         C           -2.171092000000    -0.335092000000     0.031517000000    12.000000000000
         O           -3.472656000000    -0.871194000000     0.050728000000    15.994914619570
         H           -3.902426000000    -0.651722000000    -0.779695000000     1.007825032230
         H           -1.142870000000     1.552980000000    -0.150083000000     1.007825032230
         H           -2.753797000000     1.659870000000     0.583223000000     1.007825032230
         H           -2.583803000000     1.414199000000    -1.159463000000     1.007825032230
         H           -1.730863000000    -0.583014000000     1.001293000000     1.007825032230
         H           -1.550170000000    -0.831830000000    -0.729495000000     1.007825032230

  Running in c1 symmetry.

  Rotational constants: A =      0.23355  B =      0.02331  C =      0.02260 [cm^-1]
  Rotational constants: A =   7001.80207  B =    698.85845  C =    677.48827 [MHz]
  Nuclear repulsion =  234.487907710293911

  Charge       = 0
  Multiplicity = 1
  Electrons    = 52
  Nalpha       = 26
  Nbeta        = 26

  ==> Algorithm <==

  SCF Algorithm Type is DF.
  DIIS enabled.
  MOM disabled.
  Fractional occupation disabled.
  Guess Type is SAD.
  Energy threshold   = 1.00e-08
  Density threshold  = 1.00e-08
  Integral threshold = 1.00e-12

  ==> Primary Basis <==

  Basis Set: AUG-CC-PVTZ
    Blend: AUG-CC-PVTZ
    Number of shells: 192
    Number of basis functions: 552
    Number of Cartesian functions: 630
    Spherical Harmonics?: true
    Max angular momentum: 3

   => Loading Basis Set <=

    Name: (AUG-CC-PVTZ AUX)
    Role: JKFIT
    Keyword: DF_BASIS_SCF
    atoms 1-2, 10-11 entry C          line   162 file /Users/moseschung/miniconda3/envs/psi4/share/psi4/basis/aug-cc-pvtz-jkfit.gbs 
    atoms 3, 12      entry O          line   286 file /Users/moseschung/miniconda3/envs/psi4/share/psi4/basis/aug-cc-pvtz-jkfit.gbs 
    atoms 4-9, 13-18 entry H          line    70 file /Users/moseschung/miniconda3/envs/psi4/share/psi4/basis/aug-cc-pvtz-jkfit.gbs 

  ==> Integral Setup <==

  ==> DiskDFJK: Density-Fitted J/K Matrices <==

    J tasked:                  Yes
    K tasked:                  Yes
    wK tasked:                  No
    OpenMP threads:              8
    Integrals threads:           8
    Memory [MiB]:             7152
    Algorithm:                Core
    Integral Cache:           SAVE
    Schwarz Cutoff:          1E-12
    Fitting Condition:       1E-10

   => Auxiliary Basis Set <=

  Basis Set: (AUG-CC-PVTZ AUX)
    Blend: AUG-CC-PVTZ-JKFIT
    Number of shells: 348
    Number of basis functions: 1176
    Number of Cartesian functions: 1446
    Spherical Harmonics?: true
    Max angular momentum: 4

  Minimum eigenvalue in the overlap matrix is 1.1418865756E-05.
  Reciprocal condition number of the overlap matrix is 6.4924447603E-07.
    Using symmetric orthogonalization.

  ==> Pre-Iterations <==

  SCF Guess: Superposition of Atomic Densities via on-the-fly atomic UHF (no occupation information).

   -------------------------
    Irrep   Nso     Nmo    
   -------------------------
     A        552     552 
   -------------------------
    Total     552     552
   -------------------------

  ==> Iterations <==

                           Total Energy        Delta E     RMS |[F,P]|

   @DF-RHF iter SAD:  -307.01207433103093   -3.07012e+02   0.00000e+00 
   @DF-RHF iter   1:  -308.00746703593234   -9.95393e-01   1.31783e-03 DIIS/ADIIS
   @DF-RHF iter   2:  -308.23056334333199   -2.23096e-01   6.92065e-04 DIIS/ADIIS
   @DF-RHF iter   3:  -308.28503753454362   -5.44742e-02   1.20050e-04 DIIS/ADIIS
   @DF-RHF iter   4:  -308.28825929151662   -3.22176e-03   4.52594e-05 DIIS
   @DF-RHF iter   5:  -308.28863003390086   -3.70742e-04   8.73001e-06 DIIS
   @DF-RHF iter   6:  -308.28865057050604   -2.05366e-05   2.00691e-06 DIIS
   @DF-RHF iter   7:  -308.28865203105829   -1.46055e-06   5.69093e-07 DIIS
   @DF-RHF iter   8:  -308.28865213995601   -1.08898e-07   1.79802e-07 DIIS
   @DF-RHF iter   9:  -308.28865215199164   -1.20356e-08   4.66746e-08 DIIS
   @DF-RHF iter  10:  -308.28865215285498   -8.63338e-10   9.23378e-09 DIIS
  Energy and wave function converged.


  ==> Post-Iterations <==

    Orbital Energies [Eh]
    ---------------------

    Doubly Occupied:                                                      

       1A    -20.558488     2A    -20.556589     3A    -11.276145  
       4A    -11.274535     5A    -11.222390     6A    -11.219018  
       7A     -1.365798     8A     -1.363994     9A     -1.019192  
      10A     -1.014514    11A     -0.852251    12A     -0.849694  
      13A     -0.692206    14A     -0.688378    15A     -0.630869  
      16A     -0.626937    17A     -0.614694    18A     -0.612848  
      19A     -0.548900    20A     -0.544908    21A     -0.531586  
      22A     -0.526617    23A     -0.484326    24A     -0.481256  
      25A     -0.446905    26A     -0.442482  

    Virtual:                                                              

      27A      0.025600    28A      0.032433    29A      0.036902  
      30A      0.038729    31A      0.049148    32A      0.052581  
      33A      0.055064    34A      0.064486    35A      0.066771  
      36A      0.075767    37A      0.082655    38A      0.094314  
      39A      0.104766    40A      0.107140    41A      0.118668  
      42A      0.129378    43A      0.131533    44A      0.132669  
      45A      0.135228    46A      0.139679    47A      0.145694  
      48A      0.152983    49A      0.154600    50A      0.158708  
      51A      0.174229    52A      0.182862    53A      0.187953  
      54A      0.190132    55A      0.193348    56A      0.198786  
      57A      0.208950    58A      0.221588    59A      0.229712  
      60A      0.230345    61A      0.239954    62A      0.247020  
      63A      0.252880    64A      0.259217    65A      0.262086  
      66A      0.271477    67A      0.273721    68A      0.283242  
      69A      0.286979    70A      0.294793    71A      0.309979  
      72A      0.316520    73A      0.324224    74A      0.326393  
      75A      0.338386    76A      0.347618    77A      0.348589  
      78A      0.352237    79A      0.356634    80A      0.358661  
      81A      0.360569    82A      0.367348    83A      0.372307  
      84A      0.379145    85A      0.381757    86A      0.390720  
      87A      0.391727    88A      0.397304    89A      0.402495  
      90A      0.406987    91A      0.414099    92A      0.420641  
      93A      0.423266    94A      0.427532    95A      0.432452  
      96A      0.437355    97A      0.438366    98A      0.443219  
      99A      0.452338   100A      0.460587   101A      0.465097  
     102A      0.468802   103A      0.473124   104A      0.476104  
     105A      0.485883   106A      0.489215   107A      0.496211  
     108A      0.504712   109A      0.506850   110A      0.511693  
     111A      0.513844   112A      0.518771   113A      0.524637  
     114A      0.535672   115A      0.540194   116A      0.544538  
     117A      0.554935   118A      0.558876   119A      0.576866  
     120A      0.579722   121A      0.581673   122A      0.592858  
     123A      0.598913   124A      0.603928   125A      0.610175  
     126A      0.622838   127A      0.630298   128A      0.637529  
     129A      0.661415   130A      0.669920   131A      0.674904  
     132A      0.680420   133A      0.696578   134A      0.726219  
     135A      0.729948   136A      0.745969   137A      0.746302  
     138A      0.762168   139A      0.776004   140A      0.778090  
     141A      0.791694   142A      0.801941   143A      0.804867  
     144A      0.815711   145A      0.824052   146A      0.830484  
     147A      0.833316   148A      0.838098   149A      0.841933  
     150A      0.846955   151A      0.852537   152A      0.859585  
     153A      0.864427   154A      0.869111   155A      0.878732  
     156A      0.883504   157A      0.889872   158A      0.904266  
     159A      0.910025   160A      0.913683   161A      0.918995  
     162A      0.928559   163A      0.935955   164A      0.941378  
     165A      0.947036   166A      0.952076   167A      0.964480  
     168A      0.968137   169A      0.974238   170A      0.982852  
     171A      0.990332   172A      0.999834   173A      1.011461  
     174A      1.016878   175A      1.023528   176A      1.029511  
     177A      1.031268   178A      1.039752   179A      1.041036  
     180A      1.042955   181A      1.052577   182A      1.064119  
     183A      1.067445   184A      1.074395   185A      1.080008  
     186A      1.091409   187A      1.095152   188A      1.100595  
     189A      1.110560   190A      1.119682   191A      1.123152  
     192A      1.126836   193A      1.136048   194A      1.146292  
     195A      1.151029   196A      1.155712   197A      1.160954  
     198A      1.171007   199A      1.184711   200A      1.187358  
     201A      1.192706   202A      1.200069   203A      1.205430  
     204A      1.216946   205A      1.224099   206A      1.236089  
     207A      1.245157   208A      1.249117   209A      1.259199  
     210A      1.264961   211A      1.274659   212A      1.282826  
     213A      1.291462   214A      1.305396   215A      1.316982  
     216A      1.320834   217A      1.323541   218A      1.336122  
     219A      1.344927   220A      1.356225   221A      1.371179  
     222A      1.378971   223A      1.388128   224A      1.399046  
     225A      1.411252   226A      1.424827   227A      1.434224  
     228A      1.439196   229A      1.446309   230A      1.460489  
     231A      1.474525   232A      1.477518   233A      1.494592  
     234A      1.502459   235A      1.507329   236A      1.526682  
     237A      1.530378   238A      1.550748   239A      1.557193  
     240A      1.564169   241A      1.572074   242A      1.588737  
     243A      1.609742   244A      1.613164   245A      1.622835  
     246A      1.630197   247A      1.643503   248A      1.648279  
     249A      1.664765   250A      1.668010   251A      1.673054  
     252A      1.682494   253A      1.688026   254A      1.695896  
     255A      1.706611   256A      1.712205   257A      1.717651  
     258A      1.729160   259A      1.733660   260A      1.747838  
     261A      1.754517   262A      1.756682   263A      1.764229  
     264A      1.770053   265A      1.786602   266A      1.795602  
     267A      1.801226   268A      1.809982   269A      1.820226  
     270A      1.834984   271A      1.846569   272A      1.851678  
     273A      1.869347   274A      1.884605   275A      1.894610  
     276A      1.900656   277A      1.918119   278A      1.926368  
     279A      1.937863   280A      1.941535   281A      1.963642  
     282A      1.977014   283A      1.989889   284A      2.000324  
     285A      2.006128   286A      2.022103   287A      2.034439  
     288A      2.038316   289A      2.066339   290A      2.069609  
     291A      2.084945   292A      2.103993   293A      2.111835  
     294A      2.121572   295A      2.135016   296A      2.145748  
     297A      2.154708   298A      2.186519   299A      2.198924  
     300A      2.199774   301A      2.224226   302A      2.243243  
     303A      2.254518   304A      2.260654   305A      2.276721  
     306A      2.293585   307A      2.298528   308A      2.311521  
     309A      2.318096   310A      2.331911   311A      2.368180  
     312A      2.374635   313A      2.386302   314A      2.416848  
     315A      2.427132   316A      2.446029   317A      2.450510  
     318A      2.490299   319A      2.497115   320A      2.528952  
     321A      2.581651   322A      2.593125   323A      2.612678  
     324A      2.646548   325A      2.668214   326A      2.672890  
     327A      2.700255   328A      2.736168   329A      2.765545  
     330A      2.797017   331A      2.815951   332A      2.836169  
     333A      2.860721   334A      2.879333   335A      2.910769  
     336A      2.934221   337A      2.942693   338A      2.953008  
     339A      2.974257   340A      3.002944   341A      3.015093  
     342A      3.023394   343A      3.076958   344A      3.104982  
     345A      3.154820   346A      3.172687   347A      3.204347  
     348A      3.208583   349A      3.251633   350A      3.345874  
     351A      3.351291   352A      3.399424   353A      3.415495  
     354A      3.434460   355A      3.450169   356A      3.461929  
     357A      3.478831   358A      3.484474   359A      3.508946  
     360A      3.543294   361A      3.592502   362A      3.604318  
     363A      3.622239   364A      3.625299   365A      3.636960  
     366A      3.643880   367A      3.655566   368A      3.669093  
     369A      3.681397   370A      3.692357   371A      3.703822  
     372A      3.732341   373A      3.761235   374A      3.770558  
     375A      3.773940   376A      3.787931   377A      3.793419  
     378A      3.800000   379A      3.810802   380A      3.823002  
     381A      3.843699   382A      3.855567   383A      3.896088  
     384A      3.916093   385A      3.918298   386A      3.938652  
     387A      3.950099   388A      3.955004   389A      3.962765  
     390A      3.972973   391A      3.984947   392A      3.994790  
     393A      4.007982   394A      4.016215   395A      4.035415  
     396A      4.065940   397A      4.080691   398A      4.085558  
     399A      4.094472   400A      4.118803   401A      4.124248  
     402A      4.126539   403A      4.154768   404A      4.175711  
     405A      4.182926   406A      4.191441   407A      4.204352  
     408A      4.215463   409A      4.221805   410A      4.223491  
     411A      4.242266   412A      4.255704   413A      4.280421  
     414A      4.301824   415A      4.315751   416A      4.350210  
     417A      4.363614   418A      4.370534   419A      4.378187  
     420A      4.412066   421A      4.437798   422A      4.468022  
     423A      4.496609   424A      4.504077   425A      4.536374  
     426A      4.537970   427A      4.567533   428A      4.576306  
     429A      4.587257   430A      4.593209   431A      4.600507  
     432A      4.620348   433A      4.642199   434A      4.669126  
     435A      4.696635   436A      4.700732   437A      4.714788  
     438A      4.742319   439A      4.756574   440A      4.763933  
     441A      4.789455   442A      4.809881   443A      4.850499  
     444A      4.852510   445A      4.868097   446A      4.869769  
     447A      4.884765   448A      4.896275   449A      4.915769  
     450A      4.931339   451A      4.940967   452A      4.956121  
     453A      4.961228   454A      4.974876   455A      4.988530  
     456A      5.016561   457A      5.022924   458A      5.057636  
     459A      5.073915   460A      5.099691   461A      5.121544  
     462A      5.135290   463A      5.144454   464A      5.153866  
     465A      5.185129   466A      5.188629   467A      5.199962  
     468A      5.237539   469A      5.250619   470A      5.272636  
     471A      5.286194   472A      5.300971   473A      5.355461  
     474A      5.376578   475A      5.387190   476A      5.393608  
     477A      5.420452   478A      5.435233   479A      5.465104  
     480A      5.471246   481A      5.479906   482A      5.488923  
     483A      5.553054   484A      5.555838   485A      5.580753  
     486A      5.583675   487A      5.602433   488A      5.615773  
     489A      5.638622   490A      5.649757   491A      5.683337  
     492A      5.716020   493A      5.722804   494A      5.733446  
     495A      5.793951   496A      5.811477   497A      5.854656  
     498A      5.868187   499A      5.989859   500A      6.016024  
     501A      6.068431   502A      6.075271   503A      6.082297  
     504A      6.092880   505A      6.183535   506A      6.184171  
     507A      6.213516   508A      6.229107   509A      6.245930  
     510A      6.252683   511A      6.277023   512A      6.290121  
     513A      6.413651   514A      6.420610   515A      6.680763  
     516A      6.696886   517A      6.704553   518A      6.716811  
     519A      6.789237   520A      6.817873   521A      6.851369  
     522A      6.863747   523A      6.949062   524A      6.953198  
     525A      6.966116   526A      6.968193   527A      7.134387  
     528A      7.138562   529A      7.349669   530A      7.351499  
     531A      7.373468   532A      7.387252   533A      7.446841  
     534A      7.460587   535A      7.517374   536A      7.530587  
     537A      7.632052   538A      7.639775   539A      7.838334  
     540A      7.850716   541A      7.899028   542A      7.932108  
     543A      8.221217   544A      8.236541   545A      8.582331  
     546A      8.611064   547A     16.140354   548A     16.280154  
     549A     17.802745   550A     17.891811   551A     18.704194  
     552A     18.964204  

    Final Occupation by Irrep:
              A 
    DOCC [    26 ]
    NA   [    26 ]
    NB   [    26 ]

  @DF-RHF Final Energy:  -308.28865215285498

   => Energetics <=

    Nuclear Repulsion Energy =            234.4879077102939107
    One-Electron Energy =                -884.6620727428689861
    Two-Electron Energy =                 341.8855128797200678
    Total Energy =                       -308.2886521528549792

Computation Completed


Properties will be evaluated at   0.000000,   0.000000,   0.000000 [a0]

Properties computed using the SCF density matrix


 Multipole Moments:

 ------------------------------------------------------------------------------------
     Multipole            Electronic (a.u.)      Nuclear  (a.u.)        Total (a.u.)
 ------------------------------------------------------------------------------------

 L = 1.  Multiply by 2.5417464519 to convert [e a0] to [Debye]
 Dipole X            :          0.0747862            0.0000189            0.0748051
 Dipole Y            :          0.9722180           -0.0000038            0.9722143
 Dipole Z            :         -0.1782142            0.0000170           -0.1781972
 Magnitude           :                                                    0.9912369

 ------------------------------------------------------------------------------------

*** tstop() called on Moses-MBP.lan at Sat Mar  1 15:20:26 2025
Module time:
	user time   =      94.36 seconds =       1.57 minutes
	system time =       6.14 seconds =       0.10 minutes
	total time  =         14 seconds =       0.23 minutes
Total time:
	user time   =      94.36 seconds =       1.57 minutes
	system time =       6.14 seconds =       0.10 minutes
	total time  =         14 seconds =       0.23 minutes

  //>>>>>>>>>>>>>>>>>>>>>>>>>>>>>>>>>>>//
  //            Monomer A HF           //
  //<<<<<<<<<<<<<<<<<<<<<<<<<<<<<<<<<<<//

   => Libint2 <=

    Primary   basis highest AM E, G, H:  6, 6, 3
    Auxiliary basis highest AM E, G, H:  7, 7, 4
    Onebody   basis highest AM E, G, H:  -, -, -
    Solid Harmonics ordering:            Gaussian

*** tstart() called on Moses-MBP.lan
*** at Sat Mar  1 15:20:26 2025

   => Loading Basis Set <=

    Name: AUG-CC-PVTZ
    Role: ORBITAL
    Keyword: BASIS
    atoms 1-2, 10-11 entry C          line   239 file /Users/moseschung/miniconda3/envs/psi4/share/psi4/basis/aug-cc-pvtz.gbs 
    atoms 3, 12      entry O          line   331 file /Users/moseschung/miniconda3/envs/psi4/share/psi4/basis/aug-cc-pvtz.gbs 
    atoms 4-9, 13-18 entry H          line    40 file /Users/moseschung/miniconda3/envs/psi4/share/psi4/basis/aug-cc-pvtz.gbs 


         ---------------------------------------------------------
                                   SCF
               by Justin Turney, Rob Parrish, Andy Simmonett
                          and Daniel G. A. Smith
                              RHF Reference
                        8 Threads,   9536 MiB Core
         ---------------------------------------------------------

  ==> Geometry <==

    Molecular point group: c1
    Full point group: C1

    Geometry (in Angstrom), charge = 0, multiplicity = 1:

       Center              X                  Y                   Z               Mass       
    ------------   -----------------  -----------------  -----------------  -----------------
         C            1.516213000000     0.417723000000     0.442144000000    12.000000000000
         C            2.871854000000    -0.240916000000     0.502599000000    12.000000000000
         O            3.467762000000    -0.364839000000    -0.767183000000    15.994914619570
         H            3.553027000000     0.512554000000    -1.148413000000     1.007825032230
         H            1.054212000000     0.467584000000     1.430942000000     1.007825032230
         H            0.850827000000    -0.136694000000    -0.223863000000     1.007825032230
         H            1.596600000000     1.441461000000     0.062946000000     1.007825032230
         H            2.783288000000    -1.258406000000     0.891720000000     1.007825032230
         H            3.528345000000     0.304796000000     1.195929000000     1.007825032230
      Gh(C)          -2.160843000000     1.157699000000    -0.183492000000    12.000000000000
      Gh(C)          -2.171092000000    -0.335092000000     0.031517000000    12.000000000000
      Gh(O)          -3.472656000000    -0.871194000000     0.050728000000    15.994914619570
      Gh(H)          -3.902426000000    -0.651722000000    -0.779695000000     1.007825032230
      Gh(H)          -1.142870000000     1.552980000000    -0.150083000000     1.007825032230
      Gh(H)          -2.753797000000     1.659870000000     0.583223000000     1.007825032230
      Gh(H)          -2.583803000000     1.414199000000    -1.159463000000     1.007825032230
      Gh(H)          -1.730863000000    -0.583014000000     1.001293000000     1.007825032230
      Gh(H)          -1.550170000000    -0.831830000000    -0.729495000000     1.007825032230

  Running in c1 symmetry.

  Rotational constants: A =      0.23355  B =      0.02331  C =      0.02260 [cm^-1]
  Rotational constants: A =   7001.80207  B =    698.85845  C =    677.48827 [MHz]
  Nuclear repulsion =   82.172780848460235

  Charge       = 0
  Multiplicity = 1
  Electrons    = 26
  Nalpha       = 13
  Nbeta        = 13

  ==> Algorithm <==

  SCF Algorithm Type is DF.
  DIIS enabled.
  MOM disabled.
  Fractional occupation disabled.
  Guess Type is SAD.
  Energy threshold   = 1.00e-08
  Density threshold  = 1.00e-08
  Integral threshold = 1.00e-12

  ==> Primary Basis <==

  Basis Set: AUG-CC-PVTZ
    Blend: AUG-CC-PVTZ
    Number of shells: 192
    Number of basis functions: 552
    Number of Cartesian functions: 630
    Spherical Harmonics?: true
    Max angular momentum: 3

   => Loading Basis Set <=

    Name: (AUG-CC-PVTZ AUX)
    Role: JKFIT
    Keyword: DF_BASIS_SCF
    atoms 1-2, 10-11 entry C          line   162 file /Users/moseschung/miniconda3/envs/psi4/share/psi4/basis/aug-cc-pvtz-jkfit.gbs 
    atoms 3, 12      entry O          line   286 file /Users/moseschung/miniconda3/envs/psi4/share/psi4/basis/aug-cc-pvtz-jkfit.gbs 
    atoms 4-9, 13-18 entry H          line    70 file /Users/moseschung/miniconda3/envs/psi4/share/psi4/basis/aug-cc-pvtz-jkfit.gbs 

  ==> Integral Setup <==

  ==> DiskDFJK: Density-Fitted J/K Matrices <==

    J tasked:                  Yes
    K tasked:                  Yes
    wK tasked:                  No
    OpenMP threads:              8
    Integrals threads:           8
    Memory [MiB]:             7152
    Algorithm:                Core
    Integral Cache:           LOAD
    Schwarz Cutoff:          1E-12
    Fitting Condition:       1E-10

   => Auxiliary Basis Set <=

  Basis Set: (AUG-CC-PVTZ AUX)
    Blend: AUG-CC-PVTZ-JKFIT
    Number of shells: 348
    Number of basis functions: 1176
    Number of Cartesian functions: 1446
    Spherical Harmonics?: true
    Max angular momentum: 4

  Minimum eigenvalue in the overlap matrix is 1.1418865756E-05.
  Reciprocal condition number of the overlap matrix is 6.4924447603E-07.
    Using symmetric orthogonalization.

  ==> Pre-Iterations <==

  SCF Guess: Superposition of Atomic Densities via on-the-fly atomic UHF (no occupation information).

   -------------------------
    Irrep   Nso     Nmo    
   -------------------------
     A        552     552 
   -------------------------
    Total     552     552
   -------------------------

  ==> Iterations <==

                           Total Energy        Delta E     RMS |[F,P]|

   @DF-RHF iter SAD:  -153.45823764351110   -1.53458e+02   0.00000e+00 
   @DF-RHF iter   1:  -154.00353892084769   -5.45301e-01   9.37667e-04 DIIS/ADIIS
   @DF-RHF iter   2:  -154.11538837600636   -1.11849e-01   4.95336e-04 DIIS/ADIIS
   @DF-RHF iter   3:  -154.14336468801798   -2.79763e-02   8.36880e-05 DIIS
   @DF-RHF iter   4:  -154.14493948540272   -1.57480e-03   3.20026e-05 DIIS
   @DF-RHF iter   5:  -154.14512432430351   -1.84839e-04   6.20400e-06 DIIS
   @DF-RHF iter   6:  -154.14513458565514   -1.02614e-05   1.41959e-06 DIIS
   @DF-RHF iter   7:  -154.14513531463143   -7.28976e-07   4.03806e-07 DIIS
   @DF-RHF iter   8:  -154.14513536897149   -5.43401e-08   1.27578e-07 DIIS
   @DF-RHF iter   9:  -154.14513537505354   -6.08205e-09   3.28043e-08 DIIS
   @DF-RHF iter  10:  -154.14513537548339   -4.29850e-10   6.32316e-09 DIIS
  Energy and wave function converged.


  ==> Post-Iterations <==

    Orbital Energies [Eh]
    ---------------------

    Doubly Occupied:                                                      

       1A    -20.555716     2A    -11.273308     3A    -11.218170  
       4A     -1.363011     5A     -1.014090     6A     -0.848362  
       7A     -0.688292     8A     -0.626252     9A     -0.611240  
      10A     -0.544302    11A     -0.526305    12A     -0.480587  
      13A     -0.442905  

    Virtual:                                                              

      14A      0.021018    15A      0.032143    16A      0.034697  
      17A      0.037877    18A      0.048901    19A      0.050761  
      20A      0.054655    21A      0.064015    22A      0.067517  
      23A      0.072139    24A      0.080632    25A      0.091894  
      26A      0.096711    27A      0.106165    28A      0.107651  
      29A      0.111346    30A      0.123259    31A      0.124908  
      32A      0.131462    33A      0.136191    34A      0.143342  
      35A      0.147944    36A      0.150450    37A      0.156844  
      38A      0.168690    39A      0.171818    40A      0.177687  
      41A      0.187355    42A      0.193253    43A      0.201945  
      44A      0.205791    45A      0.218018    46A      0.224846  
      47A      0.230747    48A      0.240633    49A      0.246383  
      50A      0.248717    51A      0.253482    52A      0.266247  
      53A      0.270799    54A      0.272118    55A      0.282659  
      56A      0.288300    57A      0.290781    58A      0.296351  
      59A      0.300208    60A      0.309956    61A      0.326192  
      62A      0.327784    63A      0.338044    64A      0.339230  
      65A      0.346870    66A      0.353298    67A      0.356609  
      68A      0.359137    69A      0.367960    70A      0.368529  
      71A      0.376209    72A      0.380231    73A      0.387850  
      74A      0.389993    75A      0.398271    76A      0.402007  
      77A      0.406070    78A      0.411502    79A      0.420050  
      80A      0.426581    81A      0.428143    82A      0.433353  
      83A      0.439960    84A      0.446494    85A      0.448975  
      86A      0.458631    87A      0.465046    88A      0.473817  
      89A      0.476799    90A      0.479736    91A      0.484980  
      92A      0.489951    93A      0.502480    94A      0.507232  
      95A      0.511948    96A      0.514636    97A      0.522252  
      98A      0.527848    99A      0.532334   100A      0.537431  
     101A      0.542584   102A      0.547449   103A      0.558829  
     104A      0.570438   105A      0.575086   106A      0.584649  
     107A      0.588843   108A      0.593411   109A      0.607642  
     110A      0.614652   111A      0.617628   112A      0.623506  
     113A      0.632315   114A      0.645632   115A      0.646618  
     116A      0.659198   117A      0.660479   118A      0.671432  
     119A      0.682920   120A      0.685387   121A      0.698788  
     122A      0.705349   123A      0.720817   124A      0.731428  
     125A      0.745596   126A      0.757305   127A      0.773397  
     128A      0.783371   129A      0.790646   130A      0.805375  
     131A      0.817462   132A      0.823540   133A      0.837559  
     134A      0.844219   135A      0.856059   136A      0.861949  
     137A      0.870233   138A      0.880744   139A      0.883807  
     140A      0.894901   141A      0.895782   142A      0.902910  
     143A      0.909915   144A      0.921545   145A      0.928846  
     146A      0.930197   147A      0.939588   148A      0.955009  
     149A      0.962455   150A      0.965123   151A      0.974273  
     152A      0.983524   153A      0.983695   154A      0.989912  
     155A      1.007702   156A      1.014511   157A      1.019682  
     158A      1.026302   159A      1.036465   160A      1.038874  
     161A      1.046469   162A      1.048679   163A      1.060333  
     164A      1.065944   165A      1.071227   166A      1.072116  
     167A      1.077094   168A      1.085276   169A      1.094990  
     170A      1.096059   171A      1.101245   172A      1.104602  
     173A      1.112557   174A      1.117907   175A      1.121272  
     176A      1.138736   177A      1.147461   178A      1.149946  
     179A      1.156104   180A      1.167052   181A      1.178041  
     182A      1.180314   183A      1.194942   184A      1.195724  
     185A      1.197981   186A      1.209229   187A      1.214967  
     188A      1.217621   189A      1.222773   190A      1.229063  
     191A      1.231076   192A      1.237886   193A      1.255133  
     194A      1.256254   195A      1.268634   196A      1.277004  
     197A      1.285172   198A      1.288805   199A      1.297436  
     200A      1.304198   201A      1.315057   202A      1.330569  
     203A      1.334404   204A      1.347991   205A      1.356299  
     206A      1.366360   207A      1.374483   208A      1.377235  
     209A      1.386705   210A      1.398245   211A      1.405361  
     212A      1.425773   213A      1.436310   214A      1.450415  
     215A      1.456080   216A      1.458486   217A      1.469541  
     218A      1.472490   219A      1.486952   220A      1.501567  
     221A      1.507370   222A      1.515299   223A      1.524132  
     224A      1.532921   225A      1.552101   226A      1.558375  
     227A      1.564596   228A      1.575975   229A      1.585748  
     230A      1.598172   231A      1.604082   232A      1.620427  
     233A      1.635810   234A      1.646320   235A      1.654212  
     236A      1.668810   237A      1.686361   238A      1.691142  
     239A      1.704220   240A      1.714015   241A      1.716860  
     242A      1.724258   243A      1.731571   244A      1.741342  
     245A      1.759957   246A      1.765691   247A      1.772967  
     248A      1.789918   249A      1.800667   250A      1.814993  
     251A      1.825984   252A      1.832344   253A      1.851830  
     254A      1.855202   255A      1.865839   256A      1.877607  
     257A      1.898103   258A      1.907864   259A      1.916215  
     260A      1.932328   261A      1.946765   262A      1.954544  
     263A      1.975004   264A      1.980364   265A      1.991006  
     266A      1.994487   267A      2.000553   268A      2.028385  
     269A      2.033523   270A      2.045716   271A      2.058077  
     272A      2.068397   273A      2.073213   274A      2.081164  
     275A      2.106969   276A      2.114565   277A      2.120233  
     278A      2.141014   279A      2.148260   280A      2.155698  
     281A      2.177990   282A      2.185774   283A      2.200314  
     284A      2.206100   285A      2.221406   286A      2.229440  
     287A      2.244817   288A      2.263740   289A      2.276695  
     290A      2.295475   291A      2.306905   292A      2.322185  
     293A      2.340295   294A      2.342145   295A      2.368108  
     296A      2.376401   297A      2.413518   298A      2.427558  
     299A      2.442299   300A      2.467916   301A      2.475151  
     302A      2.487169   303A      2.496848   304A      2.503087  
     305A      2.538091   306A      2.563628   307A      2.597750  
     308A      2.610695   309A      2.619197   310A      2.625757  
     311A      2.678065   312A      2.684802   313A      2.708805  
     314A      2.732546   315A      2.741699   316A      2.755616  
     317A      2.765497   318A      2.792954   319A      2.808743  
     320A      2.811485   321A      2.836168   322A      2.848806  
     323A      2.868586   324A      2.877922   325A      2.893461  
     326A      2.940807   327A      2.955975   328A      2.979911  
     329A      3.013944   330A      3.073487   331A      3.077832  
     332A      3.121034   333A      3.155030   334A      3.167609  
     335A      3.205331   336A      3.229622   337A      3.307366  
     338A      3.313322   339A      3.349701   340A      3.364022  
     341A      3.366133   342A      3.443331   343A      3.458434  
     344A      3.461558   345A      3.489996   346A      3.524993  
     347A      3.533777   348A      3.600410   349A      3.633285  
     350A      3.650734   351A      3.660001   352A      3.681174  
     353A      3.689755   354A      3.708864   355A      3.740845  
     356A      3.774550   357A      3.786239   358A      3.798832  
     359A      3.805670   360A      3.818907   361A      3.847001  
     362A      3.884361   363A      3.915215   364A      3.918632  
     365A      3.956184   366A      3.964961   367A      3.998851  
     368A      4.007832   369A      4.036783   370A      4.053649  
     371A      4.093176   372A      4.099370   373A      4.114667  
     374A      4.123851   375A      4.138183   376A      4.147444  
     377A      4.156265   378A      4.168691   379A      4.187230  
     380A      4.196262   381A      4.214314   382A      4.220016  
     383A      4.240550   384A      4.258397   385A      4.277390  
     386A      4.293185   387A      4.316218   388A      4.322970  
     389A      4.331841   390A      4.366718   391A      4.374013  
     392A      4.411375   393A      4.428585   394A      4.441592  
     395A      4.463940   396A      4.470098   397A      4.495204  
     398A      4.509286   399A      4.525136   400A      4.556417  
     401A      4.559964   402A      4.574184   403A      4.581917  
     404A      4.590449   405A      4.605024   406A      4.614080  
     407A      4.617185   408A      4.643762   409A      4.662117  
     410A      4.681271   411A      4.696757   412A      4.715989  
     413A      4.726824   414A      4.743176   415A      4.763175  
     416A      4.787540   417A      4.797958   418A      4.825990  
     419A      4.847984   420A      4.853003   421A      4.869787  
     422A      4.873819   423A      4.892499   424A      4.907085  
     425A      4.927998   426A      4.938627   427A      4.952660  
     428A      4.975741   429A      4.989042   430A      5.000572  
     431A      5.012813   432A      5.028086   433A      5.048254  
     434A      5.071403   435A      5.092382   436A      5.105475  
     437A      5.132181   438A      5.151427   439A      5.159998  
     440A      5.171704   441A      5.198203   442A      5.219790  
     443A      5.236256   444A      5.255224   445A      5.264152  
     446A      5.279571   447A      5.341379   448A      5.351754  
     449A      5.365751   450A      5.380903   451A      5.405160  
     452A      5.412410   453A      5.440852   454A      5.449808  
     455A      5.472938   456A      5.488189   457A      5.506064  
     458A      5.526130   459A      5.542681   460A      5.553692  
     461A      5.566154   462A      5.588146   463A      5.612107  
     464A      5.621113   465A      5.640520   466A      5.645539  
     467A      5.661070   468A      5.674441   469A      5.708470  
     470A      5.718875   471A      5.749483   472A      5.762236  
     473A      5.798311   474A      5.811066   475A      5.832419  
     476A      5.859401   477A      5.880912   478A      5.951262  
     479A      5.995798   480A      6.017770   481A      6.068144  
     482A      6.077761   483A      6.084878   484A      6.136893  
     485A      6.151010   486A      6.190359   487A      6.218133  
     488A      6.248767   489A      6.263581   490A      6.279277  
     491A      6.296445   492A      6.374757   493A      6.411708  
     494A      6.456175   495A      6.486261   496A      6.680774  
     497A      6.713505   498A      6.745109   499A      6.796428  
     500A      6.824041   501A      6.865085   502A      6.951802  
     503A      6.967527   504A      6.978238   505A      7.006150  
     506A      7.090954   507A      7.101095   508A      7.136731  
     509A      7.158664   510A      7.340467   511A      7.354456  
     512A      7.376531   513A      7.451750   514A      7.520373  
     515A      7.635647   516A      7.764445   517A      7.800646  
     518A      7.839295   519A      7.840748   520A      7.854894  
     521A      7.869993   522A      7.902416   523A      7.912694  
     524A      8.010658   525A      8.104140   526A      8.145917  
     527A      8.224167   528A      8.262166   529A      8.285303  
     530A      8.354014   531A      8.371131   532A      8.580398  
     533A      8.585484   534A      8.884989   535A      8.967298  
     536A      9.967458   537A     10.034239   538A     10.229619  
     539A     10.378664   540A     10.669618   541A     10.737799  
     542A     11.072410   543A     12.015678   544A     12.308834  
     545A     13.309996   546A     14.097704   547A     16.167556  
     548A     17.890807   549A     18.962859   550A     52.925008  
     551A     54.623031   552A     66.376299  

    Final Occupation by Irrep:
              A 
    DOCC [    13 ]
    NA   [    13 ]
    NB   [    13 ]

  @DF-RHF Final Energy:  -154.14513537548339

   => Energetics <=

    Nuclear Repulsion Energy =             82.1727808484602349
    One-Electron Energy =                -372.2507455846273956
    Two-Electron Energy =                 135.9328293606837406
    Total Energy =                       -154.1451353754833917

Computation Completed


Properties will be evaluated at   0.000000,   0.000000,   0.000000 [a0]

Properties computed using the SCF density matrix


 Multipole Moments:

 ------------------------------------------------------------------------------------
     Multipole            Electronic (a.u.)      Nuclear  (a.u.)        Total (a.u.)
 ------------------------------------------------------------------------------------

 L = 1.  Multiply by 2.5417464519 to convert [e a0] to [Debye]
 Dipole X            :       -127.6842259          127.4370771           -0.2471488
 Dipole Y            :          1.5778177           -0.9950825            0.5827352
 Dipole Z            :         -2.9729884            3.2886053            0.3156169
 Magnitude           :                                                    0.7073025

 ------------------------------------------------------------------------------------

*** tstop() called on Moses-MBP.lan at Sat Mar  1 15:20:33 2025
Module time:
	user time   =      50.79 seconds =       0.85 minutes
	system time =       1.30 seconds =       0.02 minutes
	total time  =          7 seconds =       0.12 minutes
Total time:
	user time   =     145.19 seconds =       2.42 minutes
	system time =       7.45 seconds =       0.12 minutes
	total time  =         21 seconds =       0.35 minutes

  //>>>>>>>>>>>>>>>>>>>>>>>>>>>>>>>>>>>//
  //            Monomer B HF           //
  //<<<<<<<<<<<<<<<<<<<<<<<<<<<<<<<<<<<//

   => Libint2 <=

    Primary   basis highest AM E, G, H:  6, 6, 3
    Auxiliary basis highest AM E, G, H:  7, 7, 4
    Onebody   basis highest AM E, G, H:  -, -, -
    Solid Harmonics ordering:            Gaussian

*** tstart() called on Moses-MBP.lan
*** at Sat Mar  1 15:20:33 2025

   => Loading Basis Set <=

    Name: AUG-CC-PVTZ
    Role: ORBITAL
    Keyword: BASIS
    atoms 1-2, 10-11 entry C          line   239 file /Users/moseschung/miniconda3/envs/psi4/share/psi4/basis/aug-cc-pvtz.gbs 
    atoms 3, 12      entry O          line   331 file /Users/moseschung/miniconda3/envs/psi4/share/psi4/basis/aug-cc-pvtz.gbs 
    atoms 4-9, 13-18 entry H          line    40 file /Users/moseschung/miniconda3/envs/psi4/share/psi4/basis/aug-cc-pvtz.gbs 


         ---------------------------------------------------------
                                   SCF
               by Justin Turney, Rob Parrish, Andy Simmonett
                          and Daniel G. A. Smith
                              RHF Reference
                        8 Threads,   9536 MiB Core
         ---------------------------------------------------------

  ==> Geometry <==

    Molecular point group: c1
    Full point group: C1

    Geometry (in Angstrom), charge = 0, multiplicity = 1:

       Center              X                  Y                   Z               Mass       
    ------------   -----------------  -----------------  -----------------  -----------------
      Gh(C)           1.516213000000     0.417723000000     0.442144000000    12.000000000000
      Gh(C)           2.871854000000    -0.240916000000     0.502599000000    12.000000000000
      Gh(O)           3.467762000000    -0.364839000000    -0.767183000000    15.994914619570
      Gh(H)           3.553027000000     0.512554000000    -1.148413000000     1.007825032230
      Gh(H)           1.054212000000     0.467584000000     1.430942000000     1.007825032230
      Gh(H)           0.850827000000    -0.136694000000    -0.223863000000     1.007825032230
      Gh(H)           1.596600000000     1.441461000000     0.062946000000     1.007825032230
      Gh(H)           2.783288000000    -1.258406000000     0.891720000000     1.007825032230
      Gh(H)           3.528345000000     0.304796000000     1.195929000000     1.007825032230
         C           -2.160843000000     1.157699000000    -0.183492000000    12.000000000000
         C           -2.171092000000    -0.335092000000     0.031517000000    12.000000000000
         O           -3.472656000000    -0.871194000000     0.050728000000    15.994914619570
         H           -3.902426000000    -0.651722000000    -0.779695000000     1.007825032230
         H           -1.142870000000     1.552980000000    -0.150083000000     1.007825032230
         H           -2.753797000000     1.659870000000     0.583223000000     1.007825032230
         H           -2.583803000000     1.414199000000    -1.159463000000     1.007825032230
         H           -1.730863000000    -0.583014000000     1.001293000000     1.007825032230
         H           -1.550170000000    -0.831830000000    -0.729495000000     1.007825032230

  Running in c1 symmetry.

  Rotational constants: A =      0.23355  B =      0.02331  C =      0.02260 [cm^-1]
  Rotational constants: A =   7001.80207  B =    698.85845  C =    677.48827 [MHz]
  Nuclear repulsion =   82.172336876769322

  Charge       = 0
  Multiplicity = 1
  Electrons    = 26
  Nalpha       = 13
  Nbeta        = 13

  ==> Algorithm <==

  SCF Algorithm Type is DF.
  DIIS enabled.
  MOM disabled.
  Fractional occupation disabled.
  Guess Type is SAD.
  Energy threshold   = 1.00e-08
  Density threshold  = 1.00e-08
  Integral threshold = 1.00e-12

  ==> Primary Basis <==

  Basis Set: AUG-CC-PVTZ
    Blend: AUG-CC-PVTZ
    Number of shells: 192
    Number of basis functions: 552
    Number of Cartesian functions: 630
    Spherical Harmonics?: true
    Max angular momentum: 3

   => Loading Basis Set <=

    Name: (AUG-CC-PVTZ AUX)
    Role: JKFIT
    Keyword: DF_BASIS_SCF
    atoms 1-2, 10-11 entry C          line   162 file /Users/moseschung/miniconda3/envs/psi4/share/psi4/basis/aug-cc-pvtz-jkfit.gbs 
    atoms 3, 12      entry O          line   286 file /Users/moseschung/miniconda3/envs/psi4/share/psi4/basis/aug-cc-pvtz-jkfit.gbs 
    atoms 4-9, 13-18 entry H          line    70 file /Users/moseschung/miniconda3/envs/psi4/share/psi4/basis/aug-cc-pvtz-jkfit.gbs 

  ==> Integral Setup <==

  ==> DiskDFJK: Density-Fitted J/K Matrices <==

    J tasked:                  Yes
    K tasked:                  Yes
    wK tasked:                  No
    OpenMP threads:              8
    Integrals threads:           8
    Memory [MiB]:             7152
    Algorithm:                Core
    Integral Cache:           LOAD
    Schwarz Cutoff:          1E-12
    Fitting Condition:       1E-10

   => Auxiliary Basis Set <=

  Basis Set: (AUG-CC-PVTZ AUX)
    Blend: AUG-CC-PVTZ-JKFIT
    Number of shells: 348
    Number of basis functions: 1176
    Number of Cartesian functions: 1446
    Spherical Harmonics?: true
    Max angular momentum: 4

  Minimum eigenvalue in the overlap matrix is 1.1418865756E-05.
  Reciprocal condition number of the overlap matrix is 6.4924447603E-07.
    Using symmetric orthogonalization.

  ==> Pre-Iterations <==

  SCF Guess: Superposition of Atomic Densities via on-the-fly atomic UHF (no occupation information).

   -------------------------
    Irrep   Nso     Nmo    
   -------------------------
     A        552     552 
   -------------------------
    Total     552     552
   -------------------------

  ==> Iterations <==

                           Total Energy        Delta E     RMS |[F,P]|

   @DF-RHF iter SAD:  -153.45917773071551   -1.53459e+02   0.00000e+00 
   @DF-RHF iter   1:  -154.00354685779359   -5.44369e-01   9.37628e-04 DIIS/ADIIS
   @DF-RHF iter   2:  -154.11541530653807   -1.11868e-01   4.95032e-04 DIIS/ADIIS
   @DF-RHF iter   3:  -154.14334857021458   -2.79333e-02   8.36892e-05 DIIS
   @DF-RHF iter   4:  -154.14492353246570   -1.57496e-03   3.20008e-05 DIIS
   @DF-RHF iter   5:  -154.14510846671945   -1.84934e-04   6.20681e-06 DIIS
   @DF-RHF iter   6:  -154.14511873650994   -1.02698e-05   1.42310e-06 DIIS
   @DF-RHF iter   7:  -154.14511946875811   -7.32248e-07   4.05239e-07 DIIS
   @DF-RHF iter   8:  -154.14511952348653   -5.47284e-08   1.28012e-07 DIIS
   @DF-RHF iter   9:  -154.14511952961510   -6.12857e-09   3.28469e-08 DIIS
   @DF-RHF iter  10:  -154.14511953004524   -4.30134e-10   6.30908e-09 DIIS
  Energy and wave function converged.


  ==> Post-Iterations <==

    Orbital Energies [Eh]
    ---------------------

    Doubly Occupied:                                                      

       1A    -20.555758     2A    -11.273367     3A    -11.218198  
       4A     -1.363117     5A     -1.014295     6A     -0.848441  
       7A     -0.687823     8A     -0.626290     9A     -0.611857  
      10A     -0.544403    11A     -0.526573    12A     -0.480640  
      13A     -0.442675  

    Virtual:                                                              

      14A      0.020296    15A      0.031121    16A      0.036129  
      17A      0.037837    18A      0.048295    19A      0.052863  
      20A      0.053447    21A      0.065269    22A      0.067569  
      23A      0.073787    24A      0.078515    25A      0.086964  
      26A      0.099698    27A      0.104384    28A      0.107584  
      29A      0.113581    30A      0.121553    31A      0.124799  
      32A      0.131822    33A      0.134615    34A      0.142733  
      35A      0.145673    36A      0.152736    37A      0.154484  
      38A      0.170067    39A      0.177557    40A      0.179593  
      41A      0.188255    42A      0.191226    43A      0.195793  
      44A      0.204305    45A      0.211868    46A      0.230217  
      47A      0.235869    48A      0.241683    49A      0.244628  
      50A      0.248408    51A      0.254306    52A      0.265079  
      53A      0.268947    54A      0.274032    55A      0.275931  
      56A      0.282274    57A      0.288550    58A      0.301491  
      59A      0.307752    60A      0.310793    61A      0.317672  
      62A      0.330370    63A      0.330839    64A      0.341167  
      65A      0.350969    66A      0.354888    67A      0.358099  
      68A      0.360904    69A      0.365234    70A      0.373549  
      71A      0.374417    72A      0.379230    73A      0.387756  
      74A      0.390715    75A      0.397480    76A      0.399759  
      77A      0.400239    78A      0.409621    79A      0.411222  
      80A      0.425764    81A      0.432419    82A      0.435617  
      83A      0.440323    84A      0.447214    85A      0.450326  
      86A      0.460042    87A      0.465180    88A      0.467154  
      89A      0.471460    90A      0.478885    91A      0.485176  
      92A      0.491791    93A      0.499978    94A      0.505504  
      95A      0.510349    96A      0.520561    97A      0.522172  
      98A      0.526436    99A      0.531630   100A      0.538862  
     101A      0.543871   102A      0.548403   103A      0.554137  
     104A      0.560579   105A      0.576827   106A      0.579287  
     107A      0.585962   108A      0.589074   109A      0.606858  
     110A      0.614217   111A      0.626775   112A      0.628079  
     113A      0.636356   114A      0.641789   115A      0.646523  
     116A      0.659771   117A      0.671440   118A      0.676386  
     119A      0.690832   120A      0.698587   121A      0.708322  
     122A      0.713761   123A      0.723764   124A      0.736343  
     125A      0.745508   126A      0.759217   127A      0.774482  
     128A      0.779734   129A      0.801003   130A      0.803981  
     131A      0.812365   132A      0.819526   133A      0.825729  
     134A      0.833694   135A      0.837913   136A      0.853193  
     137A      0.859872   138A      0.865683   139A      0.874094  
     140A      0.883236   141A      0.891616   142A      0.893125  
     143A      0.910088   144A      0.915718   145A      0.926691  
     146A      0.931107   147A      0.940668   148A      0.944749  
     149A      0.952073   150A      0.965824   151A      0.974325  
     152A      0.977491   153A      0.984903   154A      0.997130  
     155A      1.005817   156A      1.010933   157A      1.011628  
     158A      1.015359   159A      1.027668   160A      1.038574  
     161A      1.044641   162A      1.050937   163A      1.055966  
     164A      1.064351   165A      1.067345   166A      1.076483  
     167A      1.080223   168A      1.086084   169A      1.088420  
     170A      1.100261   171A      1.105263   172A      1.106830  
     173A      1.114109   174A      1.121925   175A      1.132375  
     176A      1.134792   177A      1.137574   178A      1.147171  
     179A      1.150212   180A      1.158536   181A      1.166262  
     182A      1.176885   183A      1.184769   184A      1.188237  
     185A      1.197637   186A      1.205923   187A      1.211098  
     188A      1.225003   189A      1.234106   190A      1.243196  
     191A      1.244586   192A      1.251629   193A      1.263859  
     194A      1.268869   195A      1.272654   196A      1.283573  
     197A      1.292410   198A      1.299117   199A      1.306105  
     200A      1.319771   201A      1.322076   202A      1.338033  
     203A      1.346265   204A      1.350774   205A      1.364857  
     206A      1.373993   207A      1.382315   208A      1.385512  
     209A      1.392934   210A      1.397539   211A      1.410563  
     212A      1.414244   213A      1.427552   214A      1.430822  
     215A      1.442555   216A      1.454119   217A      1.464878  
     218A      1.478389   219A      1.485924   220A      1.501817  
     221A      1.507153   222A      1.515860   223A      1.516940  
     224A      1.525882   225A      1.539369   226A      1.549567  
     227A      1.563361   228A      1.586163   229A      1.591350  
     230A      1.603337   231A      1.612020   232A      1.627858  
     233A      1.641310   234A      1.655185   235A      1.668456  
     236A      1.673691   237A      1.681548   238A      1.694084  
     239A      1.702093   240A      1.702147   241A      1.726599  
     242A      1.732181   243A      1.738262   244A      1.741787  
     245A      1.753746   246A      1.765448   247A      1.784781  
     248A      1.788788   249A      1.795310   250A      1.806052  
     251A      1.815202   252A      1.825166   253A      1.829799  
     254A      1.842991   255A      1.855166   256A      1.865418  
     257A      1.872735   258A      1.890665   259A      1.912404  
     260A      1.920761   261A      1.940883   262A      1.941605  
     263A      1.955082   264A      1.958687   265A      1.973475  
     266A      2.000919   267A      2.009655   268A      2.012705  
     269A      2.019886   270A      2.025153   271A      2.032180  
     272A      2.061350   273A      2.066709   274A      2.070262  
     275A      2.094657   276A      2.116756   277A      2.123050  
     278A      2.132564   279A      2.147115   280A      2.167999  
     281A      2.184145   282A      2.193202   283A      2.197302  
     284A      2.218299   285A      2.225027   286A      2.237240  
     287A      2.254929   288A      2.264877   289A      2.283657  
     290A      2.304423   291A      2.309661   292A      2.332630  
     293A      2.337332   294A      2.338663   295A      2.358457  
     296A      2.377114   297A      2.409901   298A      2.423928  
     299A      2.434769   300A      2.454236   301A      2.473141  
     302A      2.475467   303A      2.483349   304A      2.530292  
     305A      2.539950   306A      2.569889   307A      2.586284  
     308A      2.600640   309A      2.619002   310A      2.655881  
     311A      2.670960   312A      2.685498   313A      2.694701  
     314A      2.711140   315A      2.726521   316A      2.746488  
     317A      2.781549   318A      2.791503   319A      2.824404  
     320A      2.834506   321A      2.848797   322A      2.862779  
     323A      2.881053   324A      2.929294   325A      2.945817  
     326A      2.961906   327A      2.992866   328A      3.005984  
     329A      3.032229   330A      3.063125   331A      3.100328  
     332A      3.128759   333A      3.157358   334A      3.190617  
     335A      3.210518   336A      3.237652   337A      3.260362  
     338A      3.300089   339A      3.306152   340A      3.330710  
     341A      3.421488   342A      3.440344   343A      3.446703  
     344A      3.452557   345A      3.485981   346A      3.500496  
     347A      3.543360   348A      3.613358   349A      3.617651  
     350A      3.623737   351A      3.630441   352A      3.656773  
     353A      3.668576   354A      3.692379   355A      3.696299  
     356A      3.768381   357A      3.778847   358A      3.789697  
     359A      3.807045   360A      3.818682   361A      3.847947  
     362A      3.870444   363A      3.904836   364A      3.922711  
     365A      3.949126   366A      3.962107   367A      3.978097  
     368A      3.989334   369A      4.006275   370A      4.032069  
     371A      4.058502   372A      4.085153   373A      4.096405  
     374A      4.119600   375A      4.138262   376A      4.147176  
     377A      4.152786   378A      4.167753   379A      4.179355  
     380A      4.203229   381A      4.212729   382A      4.224449  
     383A      4.244665   384A      4.257317   385A      4.278359  
     386A      4.303739   387A      4.323580   388A      4.336940  
     389A      4.361064   390A      4.368211   391A      4.384518  
     392A      4.395317   393A      4.418446   394A      4.451312  
     395A      4.471023   396A      4.481876   397A      4.508743  
     398A      4.521363   399A      4.531536   400A      4.536956  
     401A      4.566255   402A      4.582396   403A      4.589526  
     404A      4.602570   405A      4.608307   406A      4.616979  
     407A      4.634933   408A      4.648961   409A      4.661669  
     410A      4.664948   411A      4.699979   412A      4.713923  
     413A      4.722619   414A      4.750365   415A      4.772560  
     416A      4.804656   417A      4.808717   418A      4.820131  
     419A      4.832441   420A      4.856219   421A      4.864600  
     422A      4.887689   423A      4.895972   424A      4.914385  
     425A      4.930618   426A      4.944079   427A      4.956907  
     428A      4.964548   429A      4.992285   430A      5.003655  
     431A      5.007650   432A      5.023504   433A      5.034446  
     434A      5.056440   435A      5.082791   436A      5.109955  
     437A      5.124711   438A      5.139933   439A      5.152250  
     440A      5.182925   441A      5.225548   442A      5.231467  
     443A      5.252382   444A      5.263680   445A      5.295326  
     446A      5.296555   447A      5.331188   448A      5.343517  
     449A      5.365847   450A      5.378148   451A      5.382538  
     452A      5.411948   453A      5.424779   454A      5.441414  
     455A      5.465808   456A      5.481055   457A      5.520815  
     458A      5.529328   459A      5.545144   460A      5.557266  
     461A      5.567001   462A      5.585003   463A      5.603611  
     464A      5.625990   465A      5.637443   466A      5.643122  
     467A      5.664470   468A      5.697533   469A      5.699574  
     470A      5.730717   471A      5.732773   472A      5.748748  
     473A      5.755260   474A      5.815536   475A      5.826515  
     476A      5.856323   477A      5.868713   478A      5.928633  
     479A      5.982023   480A      6.019168   481A      6.057215  
     482A      6.076170   483A      6.094675   484A      6.119578  
     485A      6.155385   486A      6.188861   487A      6.218457  
     488A      6.232862   489A      6.247123   490A      6.266877  
     491A      6.290978   492A      6.392005   493A      6.417671  
     494A      6.423677   495A      6.484283   496A      6.696953  
     497A      6.714038   498A      6.732007   499A      6.806210  
     500A      6.833652   501A      6.854329   502A      6.951679  
     503A      6.965755   504A      6.979673   505A      7.020307  
     506A      7.067506   507A      7.093634   508A      7.138642  
     509A      7.165679   510A      7.323168   511A      7.351130  
     512A      7.389302   513A      7.459400   514A      7.531409  
     515A      7.639979   516A      7.753815   517A      7.763624  
     518A      7.831215   519A      7.848564   520A      7.857157  
     521A      7.864139   522A      7.902965   523A      7.933877  
     524A      8.010606   525A      8.106212   526A      8.142942  
     527A      8.236539   528A      8.262066   529A      8.311842  
     530A      8.354963   531A      8.391487   532A      8.569514  
     533A      8.612103   534A      8.865875   535A      9.068463  
     536A      9.977922   537A     10.020662   538A     10.248031  
     539A     10.365164   540A     10.699607   541A     10.776399  
     542A     11.040740   543A     12.010623   544A     12.292097  
     545A     13.270821   546A     14.085691   547A     16.262614  
     548A     17.808107   549A     18.709906   550A     53.093969  
     551A     55.038027   552A     66.232672  

    Final Occupation by Irrep:
              A 
    DOCC [    13 ]
    NA   [    13 ]
    NB   [    13 ]

  @DF-RHF Final Energy:  -154.14511953004524

   => Energetics <=

    Nuclear Repulsion Energy =             82.1723368767693216
    One-Electron Energy =                -372.2480351627118580
    Two-Electron Energy =                 135.9305787558972725
    Total Energy =                       -154.1451195300452355

Computation Completed


Properties will be evaluated at   0.000000,   0.000000,   0.000000 [a0]

Properties computed using the SCF density matrix


 Multipole Moments:

 ------------------------------------------------------------------------------------
     Multipole            Electronic (a.u.)      Nuclear  (a.u.)        Total (a.u.)
 ------------------------------------------------------------------------------------

 L = 1.  Multiply by 2.5417464519 to convert [e a0] to [Debye]
 Dipole X            :        127.7398692         -127.4370582            0.3028110
 Dipole Y            :         -0.5906650            0.9950788            0.4044137
 Dipole Z            :          2.7923991           -3.2885883           -0.4961892
 Magnitude           :                                                    0.7081304

 ------------------------------------------------------------------------------------

*** tstop() called on Moses-MBP.lan at Sat Mar  1 15:20:40 2025
Module time:
	user time   =      50.95 seconds =       0.85 minutes
	system time =       1.28 seconds =       0.02 minutes
	total time  =          7 seconds =       0.12 minutes
Total time:
	user time   =     196.16 seconds =       3.27 minutes
	system time =       8.73 seconds =       0.15 minutes
	total time  =         28 seconds =       0.47 minutes
  Constructing Basis Sets for SAPT...

   => Loading Basis Set <=

    Name: (AUG-CC-PVTZ AUX)
    Role: RIFIT
    Keyword: DF_BASIS_SAPT
    atoms 1-2, 10-11 entry C          line   148 file /Users/moseschung/miniconda3/envs/psi4/share/psi4/basis/aug-cc-pvtz-ri.gbs 
    atoms 3, 12      entry O          line   264 file /Users/moseschung/miniconda3/envs/psi4/share/psi4/basis/aug-cc-pvtz-ri.gbs 
    atoms 4-9, 13-18 entry H          line    30 file /Users/moseschung/miniconda3/envs/psi4/share/psi4/basis/aug-cc-pvtz-ri.gbs 

   => Loading Basis Set <=

    Name: (AUG-CC-PVTZ AUX)
    Role: JKFIT
    Keyword: DF_BASIS_ELST
    atoms 1-2, 10-11 entry C          line   162 file /Users/moseschung/miniconda3/envs/psi4/share/psi4/basis/aug-cc-pvtz-jkfit.gbs 
    atoms 3, 12      entry O          line   286 file /Users/moseschung/miniconda3/envs/psi4/share/psi4/basis/aug-cc-pvtz-jkfit.gbs 
    atoms 4-9, 13-18 entry H          line    70 file /Users/moseschung/miniconda3/envs/psi4/share/psi4/basis/aug-cc-pvtz-jkfit.gbs 


  //>>>>>>>>>>>>>>>>>>>>>>>>>>>>>>>>>>>//
  //               SAPT2+              //
  //<<<<<<<<<<<<<<<<<<<<<<<<<<<<<<<<<<<//


*** tstart() called on Moses-MBP.lan
*** at Sat Mar  1 15:20:40 2025

        SAPT2+  
    Ed Hohenstein
     6 June 2009

      Orbital Information
  --------------------------
    NSO        =       552
    NMO        =       552
    NRI        =      1188
    NOCC A     =        13
    NOCC B     =        13
    FOCC A     =         0
    FOCC B     =         0
    NVIR A     =       539
    NVIR B     =       539

    Estimated memory usage: 3939.5 MB

    Natural Orbital Cutoff:   1.000E-06
    Disp(T3) Truncation:            Yes
    CCD (vv|vv) Truncation:         Yes
    MBPT T2 Truncation:             Yes

    Monomer A: 309 virtual orbitals dropped
    Monomer B: 308 virtual orbitals dropped

    Elst10,r            =    -0.000651180152 [Eh]
    Exch10 (S^2)        =     0.002467011109 [Eh]
    Exch10              =     0.002470778731 [Eh]
    Ind20,r (A<-B)      =    -0.000257328136 [Eh]
    Ind20,r (B<-A)      =    -0.000176765910 [Eh]
    Ind20,r             =    -0.000434094046 [Eh]
    Exch-Ind20,r (A<-B) =     0.000216420651 [Eh]
    Exch-Ind20,r (B<-A) =     0.000158836381 [Eh]
    Exch-Ind20,r        =     0.000375257032 [Eh]
    Disp20              =    -0.003250845076 [Eh]
    Disp20 (NO)         =    -0.002893050907 [Eh]
    Exch-Disp20         =     0.000272385524 [Eh]
    Elst12,r            =    -0.000165486406 [Eh]
    Exch11              =     0.000073830274 [Eh]
    Exch12              =     0.000186856498 [Eh]
    Ind22               =    -0.000054470153 [Eh]
    Disp21              =     0.000016400706 [Eh]
    Disp22 (SDQ)        =     0.000173529734 [Eh]

    (i =   1 of  13)         60 seconds
    (i =   2 of  13)        120 seconds
    (i =   3 of  13)        179 seconds
    (i =   4 of  13)        238 seconds
    (i =   5 of  13)        297 seconds
    (i =   6 of  13)        357 seconds
    (i =   7 of  13)        416 seconds
    (i =   8 of  13)        475 seconds
    (i =   9 of  13)        534 seconds
    (i =  10 of  13)        593 seconds
    (i =  11 of  13)        653 seconds
    (i =  12 of  13)        712 seconds
    (i =  13 of  13)        771 seconds

    Disp220 (T)         =    -0.000213833608 [Eh]

    (i =   1 of  13)         59 seconds
    (i =   2 of  13)        119 seconds
    (i =   3 of  13)        178 seconds
    (i =   4 of  13)        238 seconds
    (i =   5 of  13)        297 seconds
    (i =   6 of  13)        357 seconds
    (i =   7 of  13)        416 seconds
    (i =   8 of  13)        476 seconds
    (i =   9 of  13)        535 seconds
    (i =  10 of  13)        596 seconds
    (i =  11 of  13)        655 seconds
    (i =  12 of  13)        715 seconds
    (i =  13 of  13)        775 seconds

    Disp202 (T)         =    -0.000219943230 [Eh]

    Disp22 (T)          =    -0.000433776838 [Eh]

    Est. Disp220 (T)    =    -0.000240279191 [Eh]
    Est. Disp202 (T)    =    -0.000247144413 [Eh]

    Est. Disp22 (T)     =    -0.000487423604 [Eh]

    SAPT Results 
  --------------------------------------------------------------------------------------------------------
    Electrostatics                 -0.81666656 [mEh]      -0.51246600 [kcal/mol]      -2.14415775 [kJ/mol]
      Elst10,r                     -0.65118015 [mEh]      -0.40862171 [kcal/mol]      -1.70967325 [kJ/mol]
      Elst12,r                     -0.16548641 [mEh]      -0.10384429 [kcal/mol]      -0.43448450 [kJ/mol]

    Exchange                        2.73146550 [mEh]       1.71402048 [kcal/mol]       7.17146169 [kJ/mol]
      Exch10                        2.47077873 [mEh]       1.55043706 [kcal/mol]       6.48702866 [kJ/mol]
      Exch10(S^2)                   2.46701111 [mEh]       1.54807284 [kcal/mol]       6.47713677 [kJ/mol]
      Exch11(S^2)                   0.07383027 [mEh]       0.04632920 [kcal/mol]       0.19384136 [kJ/mol]
      Exch12(S^2)                   0.18685650 [mEh]       0.11725422 [kcal/mol]       0.49059167 [kJ/mol]

    Induction                      -0.22422878 [mEh]      -0.14070568 [kcal/mol]      -0.58871258 [kJ/mol]
      Ind20,r                      -0.43409405 [mEh]      -0.27239813 [kcal/mol]      -1.13971376 [kJ/mol]
      Ind22                        -0.05447015 [mEh]      -0.03418054 [kcal/mol]      -0.14301137 [kJ/mol]
      Exch-Ind20,r                  0.37525703 [mEh]       0.23547734 [kcal/mol]       0.98523720 [kJ/mol]
      Exch-Ind22                    0.04708728 [mEh]       0.02954771 [kcal/mol]       0.12362764 [kJ/mol]
      delta HF,r (2)               -0.15800889 [mEh]      -0.09915208 [kcal/mol]      -0.41485229 [kJ/mol]

    Dispersion                     -3.27595272 [mEh]      -2.05569137 [kcal/mol]      -8.60101267 [kJ/mol]
      Disp20                       -3.25084508 [mEh]      -2.03993608 [kcal/mol]      -8.53509257 [kJ/mol]
      Disp21                        0.01640071 [mEh]       0.01029160 [kcal/mol]       0.04306005 [kJ/mol]
      Disp22 (SDQ)                  0.17352973 [mEh]       0.10889155 [kcal/mol]       0.45560225 [kJ/mol]
      Disp22 (T)                   -0.43377684 [mEh]      -0.27219908 [kcal/mol]      -1.13888093 [kJ/mol]
      Est. Disp22 (T)              -0.48742360 [mEh]      -0.30586293 [kcal/mol]      -1.27973049 [kJ/mol]
      Exch-Disp20                   0.27238552 [mEh]       0.17092450 [kcal/mol]       0.71514809 [kJ/mol]

  Total HF                          1.60275267 [mEh]       1.00574249 [kcal/mol]       4.20802656 [kJ/mol]
  Total SAPT0                      -1.37570688 [mEh]      -0.86326910 [kcal/mol]      -3.61191791 [kJ/mol]
  Total SAPT2                      -1.28788939 [mEh]      -0.80816279 [kcal/mol]      -3.38135312 [kJ/mol]
  Total SAPT2+                     -1.58538255 [mEh]      -0.99484257 [kcal/mol]      -4.16242131 [kJ/mol]

  Special recipe for scaled SAPT0 (see Manual):
    Electrostatics sSAPT0          -0.65118015 [mEh]      -0.40862171 [kcal/mol]      -1.70967325 [kJ/mol]
    Exchange sSAPT0                 2.47077873 [mEh]       1.55043706 [kcal/mol]       6.48702866 [kJ/mol]
    Induction sSAPT0               -0.21512400 [mEh]      -0.13499235 [kcal/mol]      -0.56480798 [kJ/mol]
    Dispersion sSAPT0              -2.97720968 [mEh]      -1.86822728 [kcal/mol]      -7.81666295 [kJ/mol]
  Total sSAPT0                     -1.37273510 [mEh]      -0.86140428 [kcal/mol]      -3.60411552 [kJ/mol]
  --------------------------------------------------------------------------------------------------------

*** tstop() called on Moses-MBP.lan at Sat Mar  1 15:55:26 2025
Module time:
	user time   =   15525.54 seconds =     258.76 minutes
	system time =     363.37 seconds =       6.06 minutes
	total time  =       2086 seconds =      34.77 minutes
Total time:
	user time   =   15722.55 seconds =     262.04 minutes
	system time =     372.29 seconds =       6.20 minutes
	total time  =       2114 seconds =      35.23 minutes

    Psi4 stopped on: Saturday, 01 March 2025 03:55PM
    Psi4 wall time for execution: 0:35:14.17

*** Psi4 exiting successfully. Buy a developer a beer!
