
    -----------------------------------------------------------------------
          Psi4: An Open-Source Ab Initio Electronic Structure Package
                               Psi4 1.9 release

                         Git: Rev {} zzzzzzz 


    D. G. A. Smith, L. A. Burns, A. C. Simmonett, R. M. Parrish,
    M. C. Schieber, R. Galvelis, P. Kraus, H. Kruse, R. Di Remigio,
    A. Alenaizan, A. M. James, S. Lehtola, J. P. Misiewicz, M. Scheurer,
    R. A. Shaw, J. B. Schriber, Y. Xie, Z. L. Glick, D. A. Sirianni,
    J. S. O'Brien, J. M. Waldrop, A. Kumar, E. G. Hohenstein,
    B. P. Pritchard, B. R. Brooks, H. F. Schaefer III, A. Yu. Sokolov,
    K. Patkowski, A. E. DePrince III, U. Bozkaya, R. A. King,
    F. A. Evangelista, J. M. Turney, T. D. Crawford, C. D. Sherrill,
    J. Chem. Phys. 152(18) 184108 (2020). https://doi.org/10.1063/5.0006002

                            Additional Code Authors
    E. T. Seidl, C. L. Janssen, E. F. Valeev, M. L. Leininger,
    J. F. Gonthier, R. M. Richard, H. R. McAlexander, M. Saitow, X. Wang,
    P. Verma, M. H. Lechner, A. Jiang, S. Behnle, A. G. Heide,
    M. F. Herbst, and D. L. Poole

             Previous Authors, Complete List of Code Contributors,
                       and Citations for Specific Modules
    https://github.com/psi4/psi4/blob/master/codemeta.json
    https://github.com/psi4/psi4/graphs/contributors
    http://psicode.org/psi4manual/master/introduction.html#citing-psifour

    -----------------------------------------------------------------------


    Psi4 started on: Saturday, 01 March 2025 03:02PM

    Process ID: 192271
    Host:       moses-razer
    PSIDATADIR: /home/kchung25/anaconda3/envs/psi4_19/share/psi4
    Memory:     500.0 MiB
    Threads:    1
    
  ==> Input File <==

--------------------------------------------------------------------------
MEMORY 10 GB

molecule dimer {
0 1
C   -3.007846   0.331705   0.268325
C   -1.559751  -0.063793   0.358991
O   -1.089212  -0.338140  -0.932978
H   -0.188968  -0.686754  -0.853180
H   -3.415188   0.565167   1.253638
H   -3.595707  -0.477511  -0.168782
H   -3.120447   1.210167  -0.369948
H   -1.449816  -0.941703   1.015791
H   -0.981545   0.750973   0.828220
--
0 1
C    1.991645   1.192966  -0.303845
C    2.064585  -0.008651   0.594397
O    1.552021  -1.121729  -0.121357
H    1.618683  -1.910531   0.420765
H    2.371219   2.078479   0.207582
H    0.960239   1.383869  -0.609335
H    2.586189   1.032436  -1.204809
H    1.479341   0.160659   1.509069
H    3.101735  -0.199658   0.898460

units ang
no_reorient
no_com
symmetry c1
}

set {
basis        aug-cc-pVTZ
scf_type     df
}

energy("sapt2+")
--------------------------------------------------------------------------

  Memory set to   9.313 GiB by Python driver.

Scratch directory: /scratch/
   => Loading Basis Set <=

    Name: AUG-CC-PVTZ
    Role: ORBITAL
    Keyword: BASIS
    atoms 1-2, 10-11 entry C          line   239 file /home/kchung25/anaconda3/envs/p415env/share/psi4/basis/aug-cc-pvtz.gbs 
    atoms 3, 12      entry O          line   331 file /home/kchung25/anaconda3/envs/p415env/share/psi4/basis/aug-cc-pvtz.gbs 
    atoms 4-9, 13-18 entry H          line    40 file /home/kchung25/anaconda3/envs/p415env/share/psi4/basis/aug-cc-pvtz.gbs 

   => Loading Basis Set <=

    Name: AUG-CC-PVTZ
    Role: ORBITAL
    Keyword: BASIS
    atoms 1-2, 10-11 entry C          line   239 file /home/kchung25/anaconda3/envs/p415env/share/psi4/basis/aug-cc-pvtz.gbs 
    atoms 3, 12      entry O          line   331 file /home/kchung25/anaconda3/envs/p415env/share/psi4/basis/aug-cc-pvtz.gbs 
    atoms 4-9, 13-18 entry H          line    40 file /home/kchung25/anaconda3/envs/p415env/share/psi4/basis/aug-cc-pvtz.gbs 


  //>>>>>>>>>>>>>>>>>>>>>>>>>>>>>>>>>>>//
  //              Dimer HF             //
  //<<<<<<<<<<<<<<<<<<<<<<<<<<<<<<<<<<<//

   => Libint2 <=

    Primary   basis highest AM E, G, H:  5, 4, 3
    Auxiliary basis highest AM E, G, H:  6, 5, 4
    Onebody   basis highest AM E, G, H:  6, 5, 4
    Solid Harmonics ordering:            gaussian

*** tstart() called on moses-razer
*** at Sat Mar  1 15:02:58 2025

   => Loading Basis Set <=

    Name: AUG-CC-PVTZ
    Role: ORBITAL
    Keyword: BASIS
    atoms 1-2, 10-11 entry C          line   239 file /home/kchung25/anaconda3/envs/p415env/share/psi4/basis/aug-cc-pvtz.gbs 
    atoms 3, 12      entry O          line   331 file /home/kchung25/anaconda3/envs/p415env/share/psi4/basis/aug-cc-pvtz.gbs 
    atoms 4-9, 13-18 entry H          line    40 file /home/kchung25/anaconda3/envs/p415env/share/psi4/basis/aug-cc-pvtz.gbs 


         ---------------------------------------------------------
                                   SCF
               by Justin Turney, Rob Parrish, Andy Simmonett
                          and Daniel G. A. Smith
                              RHF Reference
                        1 Threads,   9536 MiB Core
         ---------------------------------------------------------

  ==> Geometry <==

    Molecular point group: c1
    Full point group: C1

    Geometry (in Angstrom), charge = 0, multiplicity = 1:

       Center              X                  Y                   Z               Mass       
    ------------   -----------------  -----------------  -----------------  -----------------
         C           -3.007846000000     0.331705000000     0.268325000000    12.000000000000
         C           -1.559751000000    -0.063793000000     0.358991000000    12.000000000000
         O           -1.089212000000    -0.338140000000    -0.932978000000    15.994914619570
         H           -0.188968000000    -0.686754000000    -0.853180000000     1.007825032230
         H           -3.415188000000     0.565167000000     1.253638000000     1.007825032230
         H           -3.595707000000    -0.477511000000    -0.168782000000     1.007825032230
         H           -3.120447000000     1.210167000000    -0.369948000000     1.007825032230
         H           -1.449816000000    -0.941703000000     1.015791000000     1.007825032230
         H           -0.981545000000     0.750973000000     0.828220000000     1.007825032230
         C            1.991645000000     1.192966000000    -0.303845000000    12.000000000000
         C            2.064585000000    -0.008651000000     0.594397000000    12.000000000000
         O            1.552021000000    -1.121729000000    -0.121357000000    15.994914619570
         H            1.618683000000    -1.910531000000     0.420765000000     1.007825032230
         H            2.371219000000     2.078479000000     0.207582000000     1.007825032230
         H            0.960239000000     1.383869000000    -0.609335000000     1.007825032230
         H            2.586189000000     1.032436000000    -1.204809000000     1.007825032230
         H            1.479341000000     0.160659000000     1.509069000000     1.007825032230
         H            3.101735000000    -0.199658000000     0.898460000000     1.007825032230

  Running in c1 symmetry.

  Rotational constants: A =      0.19434  B =      0.04314  C =      0.04060 [cm^-1]
  Rotational constants: A =   5826.30200  B =   1293.19803  C =   1217.09189 [MHz]
  Nuclear repulsion =  257.899909461084690

  Charge       = 0
  Multiplicity = 1
  Electrons    = 52
  Nalpha       = 26
  Nbeta        = 26

  ==> Algorithm <==

  SCF Algorithm Type is DF.
  DIIS enabled.
  MOM disabled.
  Fractional occupation disabled.
  Guess Type is SAD.
  Energy threshold   = 1.00e-08
  Density threshold  = 1.00e-08
  Integral threshold = 1.00e-12

  ==> Primary Basis <==

  Basis Set: AUG-CC-PVTZ
    Blend: AUG-CC-PVTZ
    Number of shells: 192
    Number of basis functions: 552
    Number of Cartesian functions: 630
    Spherical Harmonics?: true
    Max angular momentum: 3

   => Loading Basis Set <=

    Name: (AUG-CC-PVTZ AUX)
    Role: JKFIT
    Keyword: DF_BASIS_SCF
    atoms 1-2, 10-11 entry C          line   162 file /home/kchung25/anaconda3/envs/p415env/share/psi4/basis/aug-cc-pvtz-jkfit.gbs 
    atoms 3, 12      entry O          line   286 file /home/kchung25/anaconda3/envs/p415env/share/psi4/basis/aug-cc-pvtz-jkfit.gbs 
    atoms 4-9, 13-18 entry H          line    70 file /home/kchung25/anaconda3/envs/p415env/share/psi4/basis/aug-cc-pvtz-jkfit.gbs 

  ==> Integral Setup <==

  ==> DiskDFJK: Density-Fitted J/K Matrices <==

    J tasked:                  Yes
    K tasked:                  Yes
    wK tasked:                  No
    OpenMP threads:              1
    Integrals threads:           1
    Memory [MiB]:             7152
    Algorithm:                Core
    Integral Cache:           SAVE
    Schwarz Cutoff:          1E-12
    Fitting Condition:       1E-10

   => Auxiliary Basis Set <=

  Basis Set: (AUG-CC-PVTZ AUX)
    Blend: AUG-CC-PVTZ-JKFIT
    Number of shells: 348
    Number of basis functions: 1176
    Number of Cartesian functions: 1446
    Spherical Harmonics?: true
    Max angular momentum: 4

  Minimum eigenvalue in the overlap matrix is 9.1209325131E-06.
  Reciprocal condition number of the overlap matrix is 4.8794389197E-07.
    Using symmetric orthogonalization.

  ==> Pre-Iterations <==

  SCF Guess: Superposition of Atomic Densities via on-the-fly atomic UHF (no occupation information).

   -------------------------
    Irrep   Nso     Nmo    
   -------------------------
     A        552     552 
   -------------------------
    Total     552     552
   -------------------------

  ==> Iterations <==

                           Total Energy        Delta E     RMS |[F,P]|

   @DF-RHF iter SAD:  -307.11445724271096   -3.07114e+02   0.00000e+00 
   @DF-RHF iter   1:  -308.01317987528279   -8.98723e-01   1.31669e-03 ADIIS/DIIS
   @DF-RHF iter   2:  -308.23353903949214   -2.20359e-01   6.94504e-04 ADIIS/DIIS
   @DF-RHF iter   3:  -308.29015020500225   -5.66112e-02   1.17857e-04 ADIIS/DIIS
   @DF-RHF iter   4:  -308.29329019298518   -3.13999e-03   4.30139e-05 DIIS
   @DF-RHF iter   5:  -308.29361221916059   -3.22026e-04   8.19276e-06 DIIS
   @DF-RHF iter   6:  -308.29363158435319   -1.93652e-05   1.81620e-06 DIIS
   @DF-RHF iter   7:  -308.29363269298324   -1.10863e-06   5.57853e-07 DIIS
   @DF-RHF iter   8:  -308.29363277966758   -8.66843e-08   1.51030e-07 DIIS
   @DF-RHF iter   9:  -308.29363278787628   -8.20870e-09   3.74963e-08 DIIS
   @DF-RHF iter  10:  -308.29363278841322   -5.36943e-10   1.05926e-08 DIIS
   @DF-RHF iter  11:  -308.29363278843823   -2.50111e-11   4.37103e-09 DIIS
  Energy and wave function converged.


  ==> Post-Iterations <==

    Orbital Energies [Eh]
    ---------------------

    Doubly Occupied:                                                      

       1A    -20.577841     2A    -20.529992     3A    -11.287502  
       4A    -11.261876     5A    -11.217898     6A    -11.202171  
       7A     -1.383773     8A     -1.341272     9A     -1.026459  
      10A     -1.001831    11A     -0.846630    12A     -0.820404  
      13A     -0.724696    14A     -0.692921    15A     -0.655960  
      16A     -0.632105    17A     -0.592471    18A     -0.559737  
      19A     -0.543498    20A     -0.537730    21A     -0.524237  
      22A     -0.511931    23A     -0.503622    24A     -0.476248  
      25A     -0.455084    26A     -0.420825  

    Virtual:                                                              

      27A      0.023691    28A      0.034796    29A      0.036239  
      30A      0.041026    31A      0.050777    32A      0.054189  
      33A      0.055073    34A      0.062680    35A      0.070361  
      36A      0.078432    37A      0.082160    38A      0.083874  
      39A      0.106122    40A      0.119330    41A      0.121658  
      42A      0.123573    43A      0.128378    44A      0.133837  
      45A      0.141202    46A      0.147514    47A      0.148272  
      48A      0.154693    49A      0.155061    50A      0.158819  
      51A      0.175151    52A      0.178564    53A      0.185069  
      54A      0.189353    55A      0.202233    56A      0.212067  
      57A      0.224207    58A      0.225649    59A      0.238313  
      60A      0.243064    61A      0.253607    62A      0.262542  
      63A      0.267303    64A      0.274253    65A      0.276606  
      66A      0.283368    67A      0.289209    68A      0.296494  
      69A      0.303600    70A      0.308281    71A      0.310652  
      72A      0.325135    73A      0.330629    74A      0.332876  
      75A      0.335203    76A      0.341320    77A      0.350546  
      78A      0.355036    79A      0.364909    80A      0.370077  
      81A      0.372145    82A      0.379614    83A      0.380692  
      84A      0.387907    85A      0.395300    86A      0.400309  
      87A      0.403867    88A      0.407412    89A      0.418459  
      90A      0.420154    91A      0.424428    92A      0.430417  
      93A      0.430989    94A      0.436457    95A      0.440134  
      96A      0.448090    97A      0.451828    98A      0.455764  
      99A      0.461230   100A      0.469731   101A      0.475689  
     102A      0.478110   103A      0.482602   104A      0.491994  
     105A      0.496747   106A      0.501921   107A      0.509581  
     108A      0.511890   109A      0.515726   110A      0.517039  
     111A      0.526966   112A      0.528630   113A      0.541852  
     114A      0.544803   115A      0.548565   116A      0.550006  
     117A      0.553966   118A      0.563808   119A      0.573913  
     120A      0.577881   121A      0.584653   122A      0.589892  
     123A      0.600653   124A      0.606152   125A      0.612813  
     126A      0.620563   127A      0.632868   128A      0.647095  
     129A      0.653147   130A      0.671564   131A      0.676153  
     132A      0.681845   133A      0.687008   134A      0.698290  
     135A      0.721557   136A      0.736877   137A      0.767753  
     138A      0.780654   139A      0.790647   140A      0.802208  
     141A      0.807488   142A      0.817798   143A      0.819731  
     144A      0.827420   145A      0.837815   146A      0.842243  
     147A      0.848400   148A      0.858534   149A      0.868620  
     150A      0.871782   151A      0.875064   152A      0.876859  
     153A      0.882071   154A      0.893468   155A      0.901696  
     156A      0.908092   157A      0.913980   158A      0.918880  
     159A      0.925709   160A      0.929904   161A      0.935785  
     162A      0.939428   163A      0.942912   164A      0.952821  
     165A      0.971979   166A      0.974487   167A      0.979317  
     168A      0.989604   169A      0.997796   170A      1.006845  
     171A      1.009292   172A      1.019079   173A      1.025327  
     174A      1.028235   175A      1.041843   176A      1.043779  
     177A      1.050386   178A      1.055199   179A      1.068842  
     180A      1.073116   181A      1.078616   182A      1.083325  
     183A      1.088505   184A      1.093670   185A      1.104114  
     186A      1.106709   187A      1.112157   188A      1.124374  
     189A      1.129542   190A      1.140279   191A      1.145052  
     192A      1.156980   193A      1.166576   194A      1.173856  
     195A      1.177964   196A      1.187477   197A      1.199348  
     198A      1.205981   199A      1.208795   200A      1.224299  
     201A      1.228265   202A      1.239749   203A      1.243216  
     204A      1.251276   205A      1.262488   206A      1.265167  
     207A      1.275940   208A      1.287908   209A      1.291817  
     210A      1.299713   211A      1.302885   212A      1.312946  
     213A      1.324763   214A      1.334053   215A      1.340764  
     216A      1.352650   217A      1.358348   218A      1.364047  
     219A      1.380728   220A      1.385240   221A      1.397545  
     222A      1.407042   223A      1.416266   224A      1.433212  
     225A      1.438652   226A      1.454641   227A      1.464237  
     228A      1.471715   229A      1.476722   230A      1.501013  
     231A      1.508565   232A      1.514424   233A      1.529254  
     234A      1.538907   235A      1.544453   236A      1.557005  
     237A      1.565310   238A      1.581364   239A      1.594872  
     240A      1.612922   241A      1.629018   242A      1.631857  
     243A      1.642329   244A      1.657137   245A      1.659393  
     246A      1.661326   247A      1.670505   248A      1.678158  
     249A      1.690262   250A      1.694678   251A      1.702972  
     252A      1.710628   253A      1.716346   254A      1.722435  
     255A      1.731115   256A      1.735381   257A      1.748568  
     258A      1.757036   259A      1.763743   260A      1.770481  
     261A      1.779951   262A      1.785502   263A      1.805503  
     264A      1.813429   265A      1.819393   266A      1.834199  
     267A      1.840656   268A      1.848061   269A      1.856194  
     270A      1.876103   271A      1.884171   272A      1.893846  
     273A      1.907182   274A      1.915847   275A      1.928382  
     276A      1.935640   277A      1.954062   278A      1.957619  
     279A      1.974774   280A      1.990655   281A      2.007210  
     282A      2.011993   283A      2.023727   284A      2.031836  
     285A      2.051296   286A      2.055559   287A      2.067121  
     288A      2.090441   289A      2.101086   290A      2.111290  
     291A      2.116050   292A      2.130716   293A      2.146957  
     294A      2.152689   295A      2.162424   296A      2.179282  
     297A      2.210536   298A      2.217842   299A      2.234628  
     300A      2.240427   301A      2.251154   302A      2.264815  
     303A      2.276494   304A      2.280289   305A      2.295759  
     306A      2.303643   307A      2.328848   308A      2.347786  
     309A      2.352611   310A      2.353687   311A      2.411276  
     312A      2.419612   313A      2.422375   314A      2.451481  
     315A      2.475708   316A      2.488144   317A      2.496704  
     318A      2.521625   319A      2.554394   320A      2.614173  
     321A      2.648341   322A      2.671307   323A      2.702335  
     324A      2.717768   325A      2.739864   326A      2.764911  
     327A      2.787306   328A      2.819332   329A      2.845840  
     330A      2.856444   331A      2.890702   332A      2.914727  
     333A      2.926280   334A      2.943400   335A      2.967503  
     336A      2.977828   337A      3.003672   338A      3.020619  
     339A      3.047164   340A      3.076784   341A      3.081162  
     342A      3.112011   343A      3.133592   344A      3.142335  
     345A      3.173692   346A      3.218300   347A      3.242641  
     348A      3.277763   349A      3.300814   350A      3.361342  
     351A      3.367825   352A      3.411494   353A      3.452047  
     354A      3.475947   355A      3.484728   356A      3.485844  
     357A      3.514515   358A      3.520244   359A      3.524491  
     360A      3.573876   361A      3.606900   362A      3.617605  
     363A      3.630000   364A      3.649540   365A      3.661767  
     366A      3.674382   367A      3.700763   368A      3.706899  
     369A      3.719542   370A      3.727863   371A      3.741725  
     372A      3.761181   373A      3.770539   374A      3.774917  
     375A      3.796136   376A      3.799615   377A      3.819868  
     378A      3.823772   379A      3.837079   380A      3.848639  
     381A      3.871605   382A      3.908254   383A      3.922130  
     384A      3.952321   385A      3.960369   386A      3.978425  
     387A      3.986707   388A      3.991960   389A      4.002772  
     390A      4.010880   391A      4.018781   392A      4.035680  
     393A      4.048516   394A      4.056781   395A      4.081222  
     396A      4.103876   397A      4.105596   398A      4.121533  
     399A      4.131126   400A      4.142151   401A      4.158553  
     402A      4.162534   403A      4.176704   404A      4.185353  
     405A      4.199107   406A      4.216979   407A      4.231680  
     408A      4.243121   409A      4.263857   410A      4.270875  
     411A      4.281369   412A      4.303038   413A      4.326813  
     414A      4.360684   415A      4.365015   416A      4.372214  
     417A      4.389029   418A      4.412558   419A      4.421915  
     420A      4.459105   421A      4.483866   422A      4.487790  
     423A      4.508632   424A      4.540347   425A      4.556858  
     426A      4.571634   427A      4.591024   428A      4.595920  
     429A      4.601119   430A      4.627523   431A      4.648119  
     432A      4.659084   433A      4.682445   434A      4.712958  
     435A      4.726600   436A      4.732356   437A      4.758069  
     438A      4.774644   439A      4.786056   440A      4.807626  
     441A      4.833981   442A      4.841549   443A      4.850891  
     444A      4.858918   445A      4.868370   446A      4.876021  
     447A      4.901264   448A      4.917157   449A      4.935114  
     450A      4.954687   451A      4.966029   452A      4.996044  
     453A      5.025863   454A      5.032960   455A      5.057451  
     456A      5.067368   457A      5.090340   458A      5.107494  
     459A      5.115065   460A      5.143511   461A      5.154537  
     462A      5.164228   463A      5.183352   464A      5.189758  
     465A      5.206593   466A      5.219798   467A      5.227050  
     468A      5.271670   469A      5.279126   470A      5.312738  
     471A      5.332314   472A      5.343982   473A      5.347416  
     474A      5.368485   475A      5.385011   476A      5.409187  
     477A      5.430948   478A      5.439172   479A      5.468573  
     480A      5.486473   481A      5.504391   482A      5.532993  
     483A      5.542923   484A      5.559322   485A      5.578677  
     486A      5.602168   487A      5.611854   488A      5.655910  
     489A      5.678604   490A      5.722183   491A      5.754756  
     492A      5.768901   493A      5.775377   494A      5.810818  
     495A      5.824509   496A      5.847677   497A      5.860798  
     498A      5.867956   499A      6.018299   500A      6.025542  
     501A      6.046637   502A      6.084533   503A      6.097241  
     504A      6.123116   505A      6.161839   506A      6.167070  
     507A      6.214871   508A      6.224899   509A      6.257072  
     510A      6.290595   511A      6.337506   512A      6.382902  
     513A      6.405235   514A      6.481388   515A      6.715506  
     516A      6.732618   517A      6.762941   518A      6.773145  
     519A      6.820101   520A      6.836227   521A      6.880198  
     522A      6.895307   523A      7.007300   524A      7.041665  
     525A      7.069873   526A      7.157679   527A      7.189752  
     528A      7.216838   529A      7.355999   530A      7.376585  
     531A      7.434852   532A      7.510791   533A      7.528443  
     534A      7.560443   535A      7.610191   536A      7.641317  
     537A      7.704412   538A      7.717542   539A      7.848241  
     540A      7.904510   541A      7.968069   542A      8.138174  
     543A      8.284389   544A      8.374030   545A      8.667197  
     546A      8.705881   547A     16.129244   548A     16.831715  
     549A     17.988340   550A     18.217145   551A     18.525650  
     552A     18.792817  

    Final Occupation by Irrep:
              A 
    DOCC [    26 ]
    NA   [    26 ]
    NB   [    26 ]

  @DF-RHF Final Energy:  -308.29363278843823

   => Energetics <=

    Nuclear Repulsion Energy =            257.8999094610846896
    One-Electron Energy =                -931.7296479574417845
    Two-Electron Energy =                 365.5361057079188640
    Total Energy =                       -308.2936327884382308

Computation Completed


Properties will be evaluated at   0.000000,   0.000000,   0.000000 [a0]

Properties computed using the SCF density matrix


 Multipole Moments:

 ------------------------------------------------------------------------------------
     Multipole            Electronic (a.u.)      Nuclear  (a.u.)        Total (a.u.)
 ------------------------------------------------------------------------------------

 L = 1.  Multiply by 2.5417464519 to convert [e a0] to [Debye]
 Dipole X            :          0.8272578            0.0000094            0.8272673
 Dipole Y            :         -0.1193238            0.0000057           -0.1193181
 Dipole Z            :          1.1492939           -0.0000019            1.1492920
 Magnitude           :                                                    1.4210841

 ------------------------------------------------------------------------------------

*** tstop() called on moses-razer at Sat Mar  1 15:05:50 2025
Module time:
	user time   =     167.72 seconds =       2.80 minutes
	system time =       4.10 seconds =       0.07 minutes
	total time  =        172 seconds =       2.87 minutes
Total time:
	user time   =     167.72 seconds =       2.80 minutes
	system time =       4.10 seconds =       0.07 minutes
	total time  =        172 seconds =       2.87 minutes

  //>>>>>>>>>>>>>>>>>>>>>>>>>>>>>>>>>>>//
  //            Monomer A HF           //
  //<<<<<<<<<<<<<<<<<<<<<<<<<<<<<<<<<<<//

   => Libint2 <=

    Primary   basis highest AM E, G, H:  5, 4, 3
    Auxiliary basis highest AM E, G, H:  6, 5, 4
    Onebody   basis highest AM E, G, H:  6, 5, 4
    Solid Harmonics ordering:            gaussian

*** tstart() called on moses-razer
*** at Sat Mar  1 15:05:50 2025

   => Loading Basis Set <=

    Name: AUG-CC-PVTZ
    Role: ORBITAL
    Keyword: BASIS
    atoms 1-2, 10-11 entry C          line   239 file /home/kchung25/anaconda3/envs/p415env/share/psi4/basis/aug-cc-pvtz.gbs 
    atoms 3, 12      entry O          line   331 file /home/kchung25/anaconda3/envs/p415env/share/psi4/basis/aug-cc-pvtz.gbs 
    atoms 4-9, 13-18 entry H          line    40 file /home/kchung25/anaconda3/envs/p415env/share/psi4/basis/aug-cc-pvtz.gbs 


         ---------------------------------------------------------
                                   SCF
               by Justin Turney, Rob Parrish, Andy Simmonett
                          and Daniel G. A. Smith
                              RHF Reference
                        1 Threads,   9536 MiB Core
         ---------------------------------------------------------

  ==> Geometry <==

    Molecular point group: c1
    Full point group: C1

    Geometry (in Angstrom), charge = 0, multiplicity = 1:

       Center              X                  Y                   Z               Mass       
    ------------   -----------------  -----------------  -----------------  -----------------
         C           -3.007846000000     0.331705000000     0.268325000000    12.000000000000
         C           -1.559751000000    -0.063793000000     0.358991000000    12.000000000000
         O           -1.089212000000    -0.338140000000    -0.932978000000    15.994914619570
         H           -0.188968000000    -0.686754000000    -0.853180000000     1.007825032230
         H           -3.415188000000     0.565167000000     1.253638000000     1.007825032230
         H           -3.595707000000    -0.477511000000    -0.168782000000     1.007825032230
         H           -3.120447000000     1.210167000000    -0.369948000000     1.007825032230
         H           -1.449816000000    -0.941703000000     1.015791000000     1.007825032230
         H           -0.981545000000     0.750973000000     0.828220000000     1.007825032230
      Gh(C)           1.991645000000     1.192966000000    -0.303845000000    12.000000000000
      Gh(C)           2.064585000000    -0.008651000000     0.594397000000    12.000000000000
      Gh(O)           1.552021000000    -1.121729000000    -0.121357000000    15.994914619570
      Gh(H)           1.618683000000    -1.910531000000     0.420765000000     1.007825032230
      Gh(H)           2.371219000000     2.078479000000     0.207582000000     1.007825032230
      Gh(H)           0.960239000000     1.383869000000    -0.609335000000     1.007825032230
      Gh(H)           2.586189000000     1.032436000000    -1.204809000000     1.007825032230
      Gh(H)           1.479341000000     0.160659000000     1.509069000000     1.007825032230
      Gh(H)           3.101735000000    -0.199658000000     0.898460000000     1.007825032230

  Running in c1 symmetry.

  Rotational constants: A =      0.19434  B =      0.04314  C =      0.04060 [cm^-1]
  Rotational constants: A =   5826.30200  B =   1293.19803  C =   1217.09189 [MHz]
  Nuclear repulsion =   82.307970993653512

  Charge       = 0
  Multiplicity = 1
  Electrons    = 26
  Nalpha       = 13
  Nbeta        = 13

  ==> Algorithm <==

  SCF Algorithm Type is DF.
  DIIS enabled.
  MOM disabled.
  Fractional occupation disabled.
  Guess Type is SAD.
  Energy threshold   = 1.00e-08
  Density threshold  = 1.00e-08
  Integral threshold = 1.00e-12

  ==> Primary Basis <==

  Basis Set: AUG-CC-PVTZ
    Blend: AUG-CC-PVTZ
    Number of shells: 192
    Number of basis functions: 552
    Number of Cartesian functions: 630
    Spherical Harmonics?: true
    Max angular momentum: 3

   => Loading Basis Set <=

    Name: (AUG-CC-PVTZ AUX)
    Role: JKFIT
    Keyword: DF_BASIS_SCF
    atoms 1-2, 10-11 entry C          line   162 file /home/kchung25/anaconda3/envs/p415env/share/psi4/basis/aug-cc-pvtz-jkfit.gbs 
    atoms 3, 12      entry O          line   286 file /home/kchung25/anaconda3/envs/p415env/share/psi4/basis/aug-cc-pvtz-jkfit.gbs 
    atoms 4-9, 13-18 entry H          line    70 file /home/kchung25/anaconda3/envs/p415env/share/psi4/basis/aug-cc-pvtz-jkfit.gbs 

  ==> Integral Setup <==

  ==> DiskDFJK: Density-Fitted J/K Matrices <==

    J tasked:                  Yes
    K tasked:                  Yes
    wK tasked:                  No
    OpenMP threads:              1
    Integrals threads:           1
    Memory [MiB]:             7152
    Algorithm:                Core
    Integral Cache:           LOAD
    Schwarz Cutoff:          1E-12
    Fitting Condition:       1E-10

   => Auxiliary Basis Set <=

  Basis Set: (AUG-CC-PVTZ AUX)
    Blend: AUG-CC-PVTZ-JKFIT
    Number of shells: 348
    Number of basis functions: 1176
    Number of Cartesian functions: 1446
    Spherical Harmonics?: true
    Max angular momentum: 4

  Minimum eigenvalue in the overlap matrix is 9.1209325131E-06.
  Reciprocal condition number of the overlap matrix is 4.8794389197E-07.
    Using symmetric orthogonalization.

  ==> Pre-Iterations <==

  SCF Guess: Superposition of Atomic Densities via on-the-fly atomic UHF (no occupation information).

   -------------------------
    Irrep   Nso     Nmo    
   -------------------------
     A        552     552 
   -------------------------
    Total     552     552
   -------------------------

  ==> Iterations <==

                           Total Energy        Delta E     RMS |[F,P]|

   @DF-RHF iter SAD:  -153.45888859946541   -1.53459e+02   0.00000e+00 
   @DF-RHF iter   1:  -153.99751430848008   -5.38626e-01   9.60497e-04 ADIIS/DIIS
   @DF-RHF iter   2:  -154.10996886797741   -1.12455e-01   5.35642e-04 ADIIS/DIIS
   @DF-RHF iter   3:  -154.14313870705914   -3.31698e-02   8.45759e-05 DIIS
   @DF-RHF iter   4:  -154.14474964337060   -1.61094e-03   3.25004e-05 DIIS
   @DF-RHF iter   5:  -154.14493595355725   -1.86310e-04   5.83044e-06 DIIS
   @DF-RHF iter   6:  -154.14494584303691   -9.88948e-06   1.30882e-06 DIIS
   @DF-RHF iter   7:  -154.14494643236318   -5.89326e-07   4.07245e-07 DIIS
   @DF-RHF iter   8:  -154.14494647985495   -4.74918e-08   1.08941e-07 DIIS
   @DF-RHF iter   9:  -154.14494648439347   -4.53852e-09   2.59430e-08 DIIS
   @DF-RHF iter  10:  -154.14494648467078   -2.77311e-10   4.93496e-09 DIIS
  Energy and wave function converged.


  ==> Post-Iterations <==

    Orbital Energies [Eh]
    ---------------------

    Doubly Occupied:                                                      

       1A    -20.558071     2A    -11.273550     3A    -11.210672  
       4A     -1.364541     5A     -1.012719     6A     -0.832089  
       7A     -0.703679     8A     -0.645376     9A     -0.576593  
      10A     -0.534681    11A     -0.524800    12A     -0.487828  
      13A     -0.438302  

    Virtual:                                                              

      14A      0.019094    15A      0.034169    16A      0.034596  
      17A      0.037736    18A      0.050276    19A      0.053154  
      20A      0.053259    21A      0.062817    22A      0.067560  
      23A      0.077348    24A      0.078048    25A      0.082197  
      26A      0.086092    27A      0.108277    28A      0.112001  
      29A      0.120298    30A      0.121585    31A      0.127928  
      32A      0.133197    33A      0.140728    34A      0.144042  
      35A      0.146414    36A      0.148311    37A      0.157061  
      38A      0.161602    39A      0.168672    40A      0.179495  
      41A      0.185620    42A      0.195817    43A      0.200536  
      44A      0.212331    45A      0.225765    46A      0.226871  
      47A      0.237630    48A      0.241088    49A      0.252073  
      50A      0.257936    51A      0.265844    52A      0.275851  
      53A      0.277796    54A      0.284776    55A      0.288870  
      56A      0.301235    57A      0.305251    58A      0.313686  
      59A      0.314465    60A      0.322277    61A      0.326418  
      62A      0.328927    63A      0.339252    64A      0.340978  
      65A      0.347835    66A      0.353011    67A      0.357028  
      68A      0.363944    69A      0.369826    70A      0.375952  
      71A      0.377122    72A      0.383933    73A      0.393865  
      74A      0.397866    75A      0.403291    76A      0.412792  
      77A      0.417853    78A      0.419416    79A      0.424304  
      80A      0.431450    81A      0.434415    82A      0.434537  
      83A      0.441602    84A      0.449267    85A      0.459372  
      86A      0.465343    87A      0.470777    88A      0.478338  
      89A      0.482368    90A      0.484217    91A      0.489574  
      92A      0.493607    93A      0.500385    94A      0.507675  
      95A      0.513127    96A      0.518179    97A      0.523640  
      98A      0.533118    99A      0.538153   100A      0.546719  
     101A      0.557834   102A      0.560630   103A      0.564553  
     104A      0.568910   105A      0.573683   106A      0.585795  
     107A      0.591103   108A      0.592688   109A      0.602560  
     110A      0.618289   111A      0.623864   112A      0.630512  
     113A      0.638968   114A      0.650287   115A      0.654011  
     116A      0.659681   117A      0.672169   118A      0.675923  
     119A      0.686241   120A      0.688938   121A      0.697122  
     122A      0.708489   123A      0.713903   124A      0.732546  
     125A      0.737866   126A      0.762033   127A      0.773226  
     128A      0.784935   129A      0.808072   130A      0.820089  
     131A      0.829447   132A      0.834218   133A      0.843008  
     134A      0.852086   135A      0.857610   136A      0.861124  
     137A      0.866363   138A      0.876850   139A      0.893634  
     140A      0.899862   141A      0.907219   142A      0.910730  
     143A      0.916198   144A      0.920825   145A      0.931986  
     146A      0.947583   147A      0.956527   148A      0.966278  
     149A      0.975145   150A      0.982615   151A      0.992620  
     152A      0.998295   153A      1.005239   154A      1.012438  
     155A      1.020414   156A      1.025229   157A      1.031380  
     158A      1.039296   159A      1.043177   160A      1.050870  
     161A      1.054992   162A      1.063681   163A      1.069917  
     164A      1.079152   165A      1.082774   166A      1.091148  
     167A      1.095291   168A      1.110257   169A      1.112232  
     170A      1.121211   171A      1.125925   172A      1.135355  
     173A      1.140742   174A      1.143642   175A      1.149821  
     176A      1.160660   177A      1.167541   178A      1.170676  
     179A      1.174591   180A      1.188118   181A      1.195974  
     182A      1.202858   183A      1.206394   184A      1.222654  
     185A      1.225861   186A      1.233301   187A      1.237913  
     188A      1.245292   189A      1.249119   190A      1.261036  
     191A      1.265444   192A      1.271854   193A      1.281379  
     194A      1.289850   195A      1.302559   196A      1.309530  
     197A      1.312821   198A      1.319765   199A      1.331787  
     200A      1.338949   201A      1.341689   202A      1.353570  
     203A      1.363446   204A      1.374517   205A      1.380986  
     206A      1.385766   207A      1.397127   208A      1.407971  
     209A      1.416839   210A      1.421589   211A      1.435264  
     212A      1.439931   213A      1.447195   214A      1.462242  
     215A      1.487193   216A      1.492609   217A      1.500076  
     218A      1.514200   219A      1.520927   220A      1.527839  
     221A      1.538498   222A      1.544189   223A      1.551590  
     224A      1.566547   225A      1.571979   226A      1.591713  
     227A      1.601762   228A      1.623190   229A      1.628598  
     230A      1.649687   231A      1.655956   232A      1.667339  
     233A      1.671561   234A      1.679158   235A      1.681719  
     236A      1.693016   237A      1.701832   238A      1.703370  
     239A      1.723203   240A      1.726861   241A      1.731995  
     242A      1.752786   243A      1.757284   244A      1.762657  
     245A      1.778206   246A      1.783086   247A      1.798023  
     248A      1.800413   249A      1.825332   250A      1.833104  
     251A      1.845947   252A      1.862723   253A      1.876512  
     254A      1.887675   255A      1.898839   256A      1.910095  
     257A      1.912963   258A      1.931549   259A      1.935157  
     260A      1.945492   261A      1.951621   262A      1.974614  
     263A      1.983937   264A      1.998170   265A      2.006460  
     266A      2.025477   267A      2.042354   268A      2.051908  
     269A      2.060001   270A      2.069803   271A      2.071157  
     272A      2.095126   273A      2.101506   274A      2.116434  
     275A      2.125580   276A      2.129296   277A      2.151920  
     278A      2.167075   279A      2.173234   280A      2.187686  
     281A      2.205565   282A      2.215763   283A      2.220204  
     284A      2.226520   285A      2.245372   286A      2.259055  
     287A      2.262077   288A      2.279642   289A      2.283629  
     290A      2.303507   291A      2.312803   292A      2.350918  
     293A      2.367464   294A      2.371479   295A      2.387017  
     296A      2.399027   297A      2.428786   298A      2.459333  
     299A      2.468956   300A      2.482208   301A      2.504850  
     302A      2.521326   303A      2.545964   304A      2.562489  
     305A      2.594018   306A      2.610565   307A      2.631215  
     308A      2.650131   309A      2.694021   310A      2.721873  
     311A      2.726151   312A      2.733428   313A      2.753036  
     314A      2.766871   315A      2.783833   316A      2.804394  
     317A      2.818036   318A      2.854592   319A      2.869417  
     320A      2.898920   321A      2.916462   322A      2.925604  
     323A      2.949716   324A      2.987432   325A      3.010845  
     326A      3.037844   327A      3.063347   328A      3.083493  
     329A      3.097277   330A      3.120317   331A      3.142997  
     332A      3.155832   333A      3.207958   334A      3.220288  
     335A      3.272227   336A      3.281590   337A      3.313639  
     338A      3.319062   339A      3.359076   340A      3.403275  
     341A      3.432439   342A      3.469619   343A      3.492599  
     344A      3.514942   345A      3.517711   346A      3.527743  
     347A      3.569742   348A      3.590725   349A      3.612855  
     350A      3.629453   351A      3.652398   352A      3.696935  
     353A      3.716075   354A      3.719182   355A      3.737947  
     356A      3.762534   357A      3.769555   358A      3.794600  
     359A      3.828069   360A      3.841398   361A      3.883480  
     362A      3.903439   363A      3.932156   364A      3.954745  
     365A      3.978168   366A      3.980837   367A      3.997426  
     368A      4.018744   369A      4.052761   370A      4.098366  
     371A      4.108246   372A      4.124108   373A      4.136442  
     374A      4.147827   375A      4.150470   376A      4.171389  
     377A      4.183677   378A      4.191056   379A      4.208588  
     380A      4.222024   381A      4.224863   382A      4.235934  
     383A      4.251545   384A      4.257040   385A      4.287814  
     386A      4.326381   387A      4.341404   388A      4.366810  
     389A      4.377713   390A      4.393542   391A      4.400062  
     392A      4.419472   393A      4.448866   394A      4.461069  
     395A      4.476980   396A      4.498257   397A      4.521855  
     398A      4.532425   399A      4.554801   400A      4.567468  
     401A      4.582645   402A      4.589565   403A      4.617132  
     404A      4.635881   405A      4.648025   406A      4.656990  
     407A      4.679000   408A      4.684440   409A      4.711119  
     410A      4.722317   411A      4.731185   412A      4.750605  
     413A      4.754746   414A      4.774911   415A      4.790733  
     416A      4.824487   417A      4.836355   418A      4.846123  
     419A      4.851355   420A      4.858962   421A      4.873252  
     422A      4.901685   423A      4.920610   424A      4.929987  
     425A      4.952747   426A      4.960425   427A      4.981191  
     428A      4.986960   429A      5.007205   430A      5.040043  
     431A      5.054150   432A      5.067951   433A      5.073802  
     434A      5.107100   435A      5.136492   436A      5.158245  
     437A      5.162394   438A      5.184270   439A      5.203117  
     440A      5.205110   441A      5.218422   442A      5.240461  
     443A      5.251760   444A      5.274181   445A      5.302476  
     446A      5.319575   447A      5.345456   448A      5.365083  
     449A      5.373682   450A      5.381517   451A      5.401239  
     452A      5.415444   453A      5.425919   454A      5.451427  
     455A      5.483054   456A      5.497721   457A      5.525713  
     458A      5.528111   459A      5.538627   460A      5.560783  
     461A      5.589888   462A      5.599930   463A      5.606531  
     464A      5.621628   465A      5.652332   466A      5.684826  
     467A      5.697324   468A      5.715480   469A      5.727963  
     470A      5.767201   471A      5.769682   472A      5.786412  
     473A      5.806153   474A      5.836561   475A      5.861485  
     476A      5.921046   477A      5.949878   478A      5.980238  
     479A      6.009483   480A      6.028891   481A      6.056190  
     482A      6.075018   483A      6.075916   484A      6.141345  
     485A      6.162172   486A      6.186833   487A      6.199920  
     488A      6.239594   489A      6.251242   490A      6.284462  
     491A      6.329099   492A      6.334755   493A      6.440563  
     494A      6.473633   495A      6.558092   496A      6.719307  
     497A      6.749435   498A      6.811690   499A      6.816783  
     500A      6.865463   501A      6.884540   502A      6.922510  
     503A      7.004856   504A      7.023655   505A      7.045972  
     506A      7.113478   507A      7.133912   508A      7.207125  
     509A      7.217979   510A      7.308156   511A      7.394888  
     512A      7.449509   513A      7.598965   514A      7.606682  
     515A      7.680981   516A      7.786081   517A      7.845529  
     518A      7.851591   519A      7.870678   520A      7.889292  
     521A      7.937742   522A      8.015097   523A      8.037075  
     524A      8.086762   525A      8.160311   526A      8.196112  
     527A      8.267015   528A      8.310799   529A      8.338499  
     530A      8.373458   531A      8.484585   532A      8.574266  
     533A      8.689004   534A      8.894969   535A      9.053747  
     536A      9.989405   537A     10.140520   538A     10.360702  
     539A     10.421559   540A     10.426966   541A     10.804513  
     542A     11.058925   543A     12.051152   544A     12.495922  
     545A     13.285139   546A     14.126798   547A     16.642451  
     548A     18.229913   549A     18.682328   550A     53.050264  
     551A     54.397354   552A     66.844553  

    Final Occupation by Irrep:
              A 
    DOCC [    13 ]
    NA   [    13 ]
    NB   [    13 ]

  @DF-RHF Final Energy:  -154.14494648467078

   => Energetics <=

    Nuclear Repulsion Energy =             82.3079709936535124
    One-Electron Energy =                -372.5800324228733302
    Two-Electron Energy =                 136.1271149445490494
    Total Energy =                       -154.1449464846707826

Computation Completed


Properties will be evaluated at   0.000000,   0.000000,   0.000000 [a0]

Properties computed using the SCF density matrix


 Multipole Moments:

 ------------------------------------------------------------------------------------
     Multipole            Electronic (a.u.)      Nuclear  (a.u.)        Total (a.u.)
 ------------------------------------------------------------------------------------

 L = 1.  Multiply by 2.5417464519 to convert [e a0] to [Debye]
 Dipole X            :         92.6844261          -92.3527091            0.3317170
 Dipole Y            :          1.1798828           -1.2799285           -0.1000457
 Dipole Z            :          4.3288544           -3.7684711            0.5603834
 Magnitude           :                                                    0.6588435

 ------------------------------------------------------------------------------------

*** tstop() called on moses-razer at Sat Mar  1 15:07:26 2025
Module time:
	user time   =      94.20 seconds =       1.57 minutes
	system time =       1.37 seconds =       0.02 minutes
	total time  =         96 seconds =       1.60 minutes
Total time:
	user time   =     261.92 seconds =       4.37 minutes
	system time =       5.47 seconds =       0.09 minutes
	total time  =        268 seconds =       4.47 minutes

  //>>>>>>>>>>>>>>>>>>>>>>>>>>>>>>>>>>>//
  //            Monomer B HF           //
  //<<<<<<<<<<<<<<<<<<<<<<<<<<<<<<<<<<<//

   => Libint2 <=

    Primary   basis highest AM E, G, H:  5, 4, 3
    Auxiliary basis highest AM E, G, H:  6, 5, 4
    Onebody   basis highest AM E, G, H:  6, 5, 4
    Solid Harmonics ordering:            gaussian

*** tstart() called on moses-razer
*** at Sat Mar  1 15:07:26 2025

   => Loading Basis Set <=

    Name: AUG-CC-PVTZ
    Role: ORBITAL
    Keyword: BASIS
    atoms 1-2, 10-11 entry C          line   239 file /home/kchung25/anaconda3/envs/p415env/share/psi4/basis/aug-cc-pvtz.gbs 
    atoms 3, 12      entry O          line   331 file /home/kchung25/anaconda3/envs/p415env/share/psi4/basis/aug-cc-pvtz.gbs 
    atoms 4-9, 13-18 entry H          line    40 file /home/kchung25/anaconda3/envs/p415env/share/psi4/basis/aug-cc-pvtz.gbs 


         ---------------------------------------------------------
                                   SCF
               by Justin Turney, Rob Parrish, Andy Simmonett
                          and Daniel G. A. Smith
                              RHF Reference
                        1 Threads,   9536 MiB Core
         ---------------------------------------------------------

  ==> Geometry <==

    Molecular point group: c1
    Full point group: C1

    Geometry (in Angstrom), charge = 0, multiplicity = 1:

       Center              X                  Y                   Z               Mass       
    ------------   -----------------  -----------------  -----------------  -----------------
      Gh(C)          -3.007846000000     0.331705000000     0.268325000000    12.000000000000
      Gh(C)          -1.559751000000    -0.063793000000     0.358991000000    12.000000000000
      Gh(O)          -1.089212000000    -0.338140000000    -0.932978000000    15.994914619570
      Gh(H)          -0.188968000000    -0.686754000000    -0.853180000000     1.007825032230
      Gh(H)          -3.415188000000     0.565167000000     1.253638000000     1.007825032230
      Gh(H)          -3.595707000000    -0.477511000000    -0.168782000000     1.007825032230
      Gh(H)          -3.120447000000     1.210167000000    -0.369948000000     1.007825032230
      Gh(H)          -1.449816000000    -0.941703000000     1.015791000000     1.007825032230
      Gh(H)          -0.981545000000     0.750973000000     0.828220000000     1.007825032230
         C            1.991645000000     1.192966000000    -0.303845000000    12.000000000000
         C            2.064585000000    -0.008651000000     0.594397000000    12.000000000000
         O            1.552021000000    -1.121729000000    -0.121357000000    15.994914619570
         H            1.618683000000    -1.910531000000     0.420765000000     1.007825032230
         H            2.371219000000     2.078479000000     0.207582000000     1.007825032230
         H            0.960239000000     1.383869000000    -0.609335000000     1.007825032230
         H            2.586189000000     1.032436000000    -1.204809000000     1.007825032230
         H            1.479341000000     0.160659000000     1.509069000000     1.007825032230
         H            3.101735000000    -0.199658000000     0.898460000000     1.007825032230

  Running in c1 symmetry.

  Rotational constants: A =      0.19434  B =      0.04314  C =      0.04060 [cm^-1]
  Rotational constants: A =   5826.30200  B =   1293.19803  C =   1217.09189 [MHz]
  Nuclear repulsion =   82.121554404020117

  Charge       = 0
  Multiplicity = 1
  Electrons    = 26
  Nalpha       = 13
  Nbeta        = 13

  ==> Algorithm <==

  SCF Algorithm Type is DF.
  DIIS enabled.
  MOM disabled.
  Fractional occupation disabled.
  Guess Type is SAD.
  Energy threshold   = 1.00e-08
  Density threshold  = 1.00e-08
  Integral threshold = 1.00e-12

  ==> Primary Basis <==

  Basis Set: AUG-CC-PVTZ
    Blend: AUG-CC-PVTZ
    Number of shells: 192
    Number of basis functions: 552
    Number of Cartesian functions: 630
    Spherical Harmonics?: true
    Max angular momentum: 3

   => Loading Basis Set <=

    Name: (AUG-CC-PVTZ AUX)
    Role: JKFIT
    Keyword: DF_BASIS_SCF
    atoms 1-2, 10-11 entry C          line   162 file /home/kchung25/anaconda3/envs/p415env/share/psi4/basis/aug-cc-pvtz-jkfit.gbs 
    atoms 3, 12      entry O          line   286 file /home/kchung25/anaconda3/envs/p415env/share/psi4/basis/aug-cc-pvtz-jkfit.gbs 
    atoms 4-9, 13-18 entry H          line    70 file /home/kchung25/anaconda3/envs/p415env/share/psi4/basis/aug-cc-pvtz-jkfit.gbs 

  ==> Integral Setup <==

  ==> DiskDFJK: Density-Fitted J/K Matrices <==

    J tasked:                  Yes
    K tasked:                  Yes
    wK tasked:                  No
    OpenMP threads:              1
    Integrals threads:           1
    Memory [MiB]:             7152
    Algorithm:                Core
    Integral Cache:           LOAD
    Schwarz Cutoff:          1E-12
    Fitting Condition:       1E-10

   => Auxiliary Basis Set <=

  Basis Set: (AUG-CC-PVTZ AUX)
    Blend: AUG-CC-PVTZ-JKFIT
    Number of shells: 348
    Number of basis functions: 1176
    Number of Cartesian functions: 1446
    Spherical Harmonics?: true
    Max angular momentum: 4

  Minimum eigenvalue in the overlap matrix is 9.1209325131E-06.
  Reciprocal condition number of the overlap matrix is 4.8794389197E-07.
    Using symmetric orthogonalization.

  ==> Pre-Iterations <==

  SCF Guess: Superposition of Atomic Densities via on-the-fly atomic UHF (no occupation information).

   -------------------------
    Irrep   Nso     Nmo    
   -------------------------
     A        552     552 
   -------------------------
    Total     552     552
   -------------------------

  ==> Iterations <==

                           Total Energy        Delta E     RMS |[F,P]|

   @DF-RHF iter SAD:  -153.43613170596743   -1.53436e+02   0.00000e+00 
   @DF-RHF iter   1:  -153.99898795119341   -5.62856e-01   9.60060e-04 ADIIS/DIIS
   @DF-RHF iter   2:  -154.11087294311920   -1.11885e-01   5.35326e-04 ADIIS/DIIS
   @DF-RHF iter   3:  -154.14386160910772   -3.29887e-02   8.47248e-05 DIIS
   @DF-RHF iter   4:  -154.14546137799508   -1.59977e-03   3.25605e-05 DIIS
   @DF-RHF iter   5:  -154.14564795268953   -1.86575e-04   5.76149e-06 DIIS
   @DF-RHF iter   6:  -154.14565755466856   -9.60198e-06   1.27722e-06 DIIS
   @DF-RHF iter   7:  -154.14565810952007   -5.54852e-07   3.92292e-07 DIIS
   @DF-RHF iter   8:  -154.14565815365393   -4.41339e-08   1.05592e-07 DIIS
   @DF-RHF iter   9:  -154.14565815790201   -4.24808e-09   2.55352e-08 DIIS
   @DF-RHF iter  10:  -154.14565815817130   -2.69296e-10   4.86471e-09 DIIS
  Energy and wave function converged.


  ==> Post-Iterations <==

    Orbital Energies [Eh]
    ---------------------

    Doubly Occupied:                                                      

       1A    -20.554650     2A    -11.274117     3A    -11.211343  
       4A     -1.358196     5A     -1.014515     6A     -0.833683  
       7A     -0.701011     8A     -0.645301     9A     -0.572215  
      10A     -0.533517    11A     -0.524125    12A     -0.489706  
      13A     -0.440625  

    Virtual:                                                              

      14A      0.023355    15A      0.031370    16A      0.036422  
      17A      0.039617    18A      0.051112    19A      0.052206  
      20A      0.053642    21A      0.062773    22A      0.069385  
      23A      0.073845    24A      0.080168    25A      0.081006  
      26A      0.098975    27A      0.109016    28A      0.118705  
      29A      0.122493    30A      0.124304    31A      0.128459  
      32A      0.131148    33A      0.135300    34A      0.139397  
      35A      0.144978    36A      0.151649    37A      0.157674  
      38A      0.167401    39A      0.178139    40A      0.180369  
      41A      0.191636    42A      0.197320    43A      0.204098  
      44A      0.214109    45A      0.215723    46A      0.236271  
      47A      0.245416    48A      0.250671    49A      0.258335  
      50A      0.262610    51A      0.268546    52A      0.274592  
      53A      0.280896    54A      0.283116    55A      0.291611  
      56A      0.295630    57A      0.299422    58A      0.308196  
      59A      0.310291    60A      0.323049    61A      0.331214  
      62A      0.335361    63A      0.337191    64A      0.339897  
      65A      0.344081    66A      0.350119    67A      0.356545  
      68A      0.368682    69A      0.371182    70A      0.381860  
      71A      0.385924    72A      0.391588    73A      0.399572  
      74A      0.402351    75A      0.409867    76A      0.418580  
      77A      0.420216    78A      0.425749    79A      0.429812  
      80A      0.435034    81A      0.439067    82A      0.450986  
      83A      0.453649    84A      0.455367    85A      0.461145  
      86A      0.462808    87A      0.470907    88A      0.479105  
      89A      0.485140    90A      0.487627    91A      0.492487  
      92A      0.502420    93A      0.511291    94A      0.513255  
      95A      0.524811    96A      0.527181    97A      0.529348  
      98A      0.537115    99A      0.540668   100A      0.544438  
     101A      0.552102   102A      0.555808   103A      0.560753  
     104A      0.570628   105A      0.576359   106A      0.584377  
     107A      0.588363   108A      0.591068   109A      0.601438  
     110A      0.612992   111A      0.622493   112A      0.626336  
     113A      0.640495   114A      0.648583   115A      0.656564  
     116A      0.665508   117A      0.676111   118A      0.686660  
     119A      0.695533   120A      0.703606   121A      0.708802  
     122A      0.716766   123A      0.727092   124A      0.732800  
     125A      0.735426   126A      0.744491   127A      0.751704  
     128A      0.794274   129A      0.806840   130A      0.825716  
     131A      0.832384   132A      0.838181   133A      0.849859  
     134A      0.856853   135A      0.859604   136A      0.875209  
     137A      0.882246   138A      0.895005   139A      0.897662  
     140A      0.913890   141A      0.924476   142A      0.927396  
     143A      0.931581   144A      0.938623   145A      0.945936  
     146A      0.951186   147A      0.962391   148A      0.976399  
     149A      0.979713   150A      0.988370   151A      0.993825  
     152A      1.006081   153A      1.009398   154A      1.015219  
     155A      1.026906   156A      1.032152   157A      1.039340  
     158A      1.049715   159A      1.052553   160A      1.059797  
     161A      1.062358   162A      1.068608   163A      1.073706  
     164A      1.082082   165A      1.087361   166A      1.095361  
     167A      1.097770   168A      1.105829   169A      1.109024  
     170A      1.113921   171A      1.126744   172A      1.133262  
     173A      1.139153   174A      1.145618   175A      1.149752  
     176A      1.163026   177A      1.165941   178A      1.174130  
     179A      1.179496   180A      1.190053   181A      1.201975  
     182A      1.210023   183A      1.218828   184A      1.224226  
     185A      1.236740   186A      1.237684   187A      1.243127  
     188A      1.249155   189A      1.258407   190A      1.266699  
     191A      1.279583   192A      1.284251   193A      1.292704  
     194A      1.299264   195A      1.307310   196A      1.319068  
     197A      1.319706   198A      1.325219   199A      1.336428  
     200A      1.342151   201A      1.345211   202A      1.356180  
     203A      1.361473   204A      1.371080   205A      1.380491  
     206A      1.393969   207A      1.406748   208A      1.410732  
     209A      1.428195   210A      1.428870   211A      1.437816  
     212A      1.443491   213A      1.452215   214A      1.467661  
     215A      1.473871   216A      1.484781   217A      1.488742  
     218A      1.509115   219A      1.523901   220A      1.533766  
     221A      1.551960   222A      1.555952   223A      1.570051  
     224A      1.572468   225A      1.587653   226A      1.599605  
     227A      1.618841   228A      1.630743   229A      1.640594  
     230A      1.653400   231A      1.655036   232A      1.661229  
     233A      1.679603   234A      1.689841   235A      1.694275  
     236A      1.699652   237A      1.723375   238A      1.726720  
     239A      1.735041   240A      1.744912   241A      1.748748  
     242A      1.760648   243A      1.767130   244A      1.783171  
     245A      1.792938   246A      1.805380   247A      1.823964  
     248A      1.826747   249A      1.835250   250A      1.838094  
     251A      1.845148   252A      1.859923   253A      1.874545  
     254A      1.879719   255A      1.904616   256A      1.912064  
     257A      1.915897   258A      1.932198   259A      1.953364  
     260A      1.969132   261A      1.982274   262A      1.996707  
     263A      2.004416   264A      2.017008   265A      2.029157  
     266A      2.044393   267A      2.051838   268A      2.053043  
     269A      2.082872   270A      2.089592   271A      2.100329  
     272A      2.101777   273A      2.108478   274A      2.112134  
     275A      2.136064   276A      2.147947   277A      2.157085  
     278A      2.164616   279A      2.175305   280A      2.191798  
     281A      2.208035   282A      2.217441   283A      2.237597  
     284A      2.250147   285A      2.259644   286A      2.274337  
     287A      2.285202   288A      2.295377   289A      2.303762  
     290A      2.311468   291A      2.342121   292A      2.357333  
     293A      2.369255   294A      2.393272   295A      2.413747  
     296A      2.420460   297A      2.433316   298A      2.437598  
     299A      2.441312   300A      2.457710   301A      2.468281  
     302A      2.484367   303A      2.539398   304A      2.558820  
     305A      2.582185   306A      2.599097   307A      2.634663  
     308A      2.666630   309A      2.707764   310A      2.720942  
     311A      2.733362   312A      2.747207   313A      2.763227  
     314A      2.772097   315A      2.795705   316A      2.816732  
     317A      2.827626   318A      2.846718   319A      2.866040  
     320A      2.900177   321A      2.910663   322A      2.916342  
     323A      2.958508   324A      2.994874   325A      3.003492  
     326A      3.022384   327A      3.050363   328A      3.066659  
     329A      3.096376   330A      3.104282   331A      3.136729  
     332A      3.175833   333A      3.181168   334A      3.194867  
     335A      3.268142   336A      3.288145   337A      3.341219  
     338A      3.405785   339A      3.427103   340A      3.481816  
     341A      3.486630   342A      3.503317   343A      3.518277  
     344A      3.531876   345A      3.547544   346A      3.605905  
     347A      3.637390   348A      3.643227   349A      3.658128  
     350A      3.685134   351A      3.688581   352A      3.717020  
     353A      3.738091   354A      3.761495   355A      3.776971  
     356A      3.799719   357A      3.827218   358A      3.843782  
     359A      3.845389   360A      3.859237   361A      3.878396  
     362A      3.946200   363A      3.965339   364A      3.969858  
     365A      3.997451   366A      4.016132   367A      4.017024  
     368A      4.050217   369A      4.072467   370A      4.079331  
     371A      4.091513   372A      4.117918   373A      4.130381  
     374A      4.137002   375A      4.150009   376A      4.165923  
     377A      4.182756   378A      4.203216   379A      4.219392  
     380A      4.224029   381A      4.245398   382A      4.262516  
     383A      4.267458   384A      4.277514   385A      4.301267  
     386A      4.316723   387A      4.329463   388A      4.353162  
     389A      4.368702   390A      4.386566   391A      4.413312  
     392A      4.421833   393A      4.445761   394A      4.448748  
     395A      4.473834   396A      4.485053   397A      4.507866  
     398A      4.517896   399A      4.559315   400A      4.574313  
     401A      4.581608   402A      4.609371   403A      4.612128  
     404A      4.629656   405A      4.633934   406A      4.639567  
     407A      4.682316   408A      4.696148   409A      4.702019  
     410A      4.718389   411A      4.727833   412A      4.741674  
     413A      4.776278   414A      4.782525   415A      4.790123  
     416A      4.811410   417A      4.845032   418A      4.861018  
     419A      4.880243   420A      4.888125   421A      4.905990  
     422A      4.916067   423A      4.929187   424A      4.943501  
     425A      4.948827   426A      4.973869   427A      4.978605  
     428A      5.010074   429A      5.035366   430A      5.046034  
     431A      5.065986   432A      5.076844   433A      5.089079  
     434A      5.116627   435A      5.149072   436A      5.152605  
     437A      5.174676   438A      5.188584   439A      5.196199  
     440A      5.202846   441A      5.244429   442A      5.260486  
     443A      5.278090   444A      5.285470   445A      5.318023  
     446A      5.333205   447A      5.341190   448A      5.344938  
     449A      5.375388   450A      5.390298   451A      5.422663  
     452A      5.434206   453A      5.444711   454A      5.458063  
     455A      5.485812   456A      5.503056   457A      5.507944  
     458A      5.525220   459A      5.543104   460A      5.568712  
     461A      5.585740   462A      5.598465   463A      5.640547  
     464A      5.653379   465A      5.662701   466A      5.686020  
     467A      5.723715   468A      5.740606   469A      5.754174  
     470A      5.763601   471A      5.773617   472A      5.797891  
     473A      5.809556   474A      5.836868   475A      5.868834  
     476A      5.895922   477A      5.948629   478A      5.991856  
     479A      6.018578   480A      6.042394   481A      6.064992  
     482A      6.083830   483A      6.118720   484A      6.138321  
     485A      6.151516   486A      6.195513   487A      6.215944  
     488A      6.237132   489A      6.280572   490A      6.301817  
     491A      6.317577   492A      6.419641   493A      6.452860  
     494A      6.472392   495A      6.596974   496A      6.744537  
     497A      6.773999   498A      6.816324   499A      6.837322  
     500A      6.868561   501A      6.887341   502A      6.903588  
     503A      7.005229   504A      7.048083   505A      7.062664  
     506A      7.141090   507A      7.178437   508A      7.202166  
     509A      7.323905   510A      7.334037   511A      7.390728  
     512A      7.443173   513A      7.569946   514A      7.589448  
     515A      7.636411   516A      7.755633   517A      7.831890  
     518A      7.861929   519A      7.874318   520A      7.888542  
     521A      7.958421   522A      7.959836   523A      8.005701  
     524A      8.027451   525A      8.174653   526A      8.230538  
     527A      8.287218   528A      8.322033   529A      8.343044  
     530A      8.372430   531A      8.485722   532A      8.678023  
     533A      8.718198   534A      9.106343   535A      9.147451  
     536A     10.026624   537A     10.165244   538A     10.419626  
     539A     10.466740   540A     10.499169   541A     10.865909  
     542A     11.149271   543A     12.038819   544A     12.416586  
     545A     13.355566   546A     14.386319   547A     16.403481  
     548A     18.011449   549A     18.566834   550A     53.478032  
     551A     54.566873   552A     67.493633  

    Final Occupation by Irrep:
              A 
    DOCC [    13 ]
    NA   [    13 ]
    NB   [    13 ]

  @DF-RHF Final Energy:  -154.14565815817130

   => Energetics <=

    Nuclear Repulsion Energy =             82.1215544040201166
    One-Electron Energy =                -372.2284158266429586
    Two-Electron Energy =                 135.9612032644515409
    Total Energy =                       -154.1456581581713010

Computation Completed


Properties will be evaluated at   0.000000,   0.000000,   0.000000 [a0]

Properties computed using the SCF density matrix


 Multipole Moments:

 ------------------------------------------------------------------------------------
     Multipole            Electronic (a.u.)      Nuclear  (a.u.)        Total (a.u.)
 ------------------------------------------------------------------------------------

 L = 1.  Multiply by 2.5417464519 to convert [e a0] to [Debye]
 Dipole X            :        -92.0982433           92.3527185            0.2544752
 Dipole Y            :         -1.2769649            1.2799342            0.0029693
 Dipole Z            :         -3.1577291            3.7684692            0.6107401
 Magnitude           :                                                    0.6616418

 ------------------------------------------------------------------------------------

*** tstop() called on moses-razer at Sat Mar  1 15:09:01 2025
Module time:
	user time   =      94.53 seconds =       1.58 minutes
	system time =       1.40 seconds =       0.02 minutes
	total time  =         95 seconds =       1.58 minutes
Total time:
	user time   =     356.45 seconds =       5.94 minutes
	system time =       6.87 seconds =       0.11 minutes
	total time  =        363 seconds =       6.05 minutes
  Constructing Basis Sets for SAPT...

   => Loading Basis Set <=

    Name: (AUG-CC-PVTZ AUX)
    Role: RIFIT
    Keyword: DF_BASIS_SAPT
    atoms 1-2, 10-11 entry C          line   148 file /home/kchung25/anaconda3/envs/p415env/share/psi4/basis/aug-cc-pvtz-ri.gbs 
    atoms 3, 12      entry O          line   264 file /home/kchung25/anaconda3/envs/p415env/share/psi4/basis/aug-cc-pvtz-ri.gbs 
    atoms 4-9, 13-18 entry H          line    30 file /home/kchung25/anaconda3/envs/p415env/share/psi4/basis/aug-cc-pvtz-ri.gbs 

   => Loading Basis Set <=

    Name: (AUG-CC-PVTZ AUX)
    Role: JKFIT
    Keyword: DF_BASIS_ELST
    atoms 1-2, 10-11 entry C          line   162 file /home/kchung25/anaconda3/envs/p415env/share/psi4/basis/aug-cc-pvtz-jkfit.gbs 
    atoms 3, 12      entry O          line   286 file /home/kchung25/anaconda3/envs/p415env/share/psi4/basis/aug-cc-pvtz-jkfit.gbs 
    atoms 4-9, 13-18 entry H          line    70 file /home/kchung25/anaconda3/envs/p415env/share/psi4/basis/aug-cc-pvtz-jkfit.gbs 


  //>>>>>>>>>>>>>>>>>>>>>>>>>>>>>>>>>>>//
  //               SAPT2+              //
  //<<<<<<<<<<<<<<<<<<<<<<<<<<<<<<<<<<<//


*** tstart() called on moses-razer
*** at Sat Mar  1 15:09:02 2025

        SAPT2+  
    Ed Hohenstein
     6 June 2009

      Orbital Information
  --------------------------
    NSO        =       552
    NMO        =       552
    NRI        =      1188
    NOCC A     =        13
    NOCC B     =        13
    FOCC A     =         0
    FOCC B     =         0
    NVIR A     =       539
    NVIR B     =       539

    Estimated memory usage: 3939.5 MB

    Natural Orbital Cutoff:   1.000E-06
    Disp(T3) Truncation:            Yes
    CCD (vv|vv) Truncation:         Yes
    MBPT T2 Truncation:             Yes

    Monomer A: 306 virtual orbitals dropped
    Monomer B: 304 virtual orbitals dropped

    Elst10,r            =    -0.014653083052 [Eh]
    Exch10 (S^2)        =     0.016006628596 [Eh]
    Exch10              =     0.016121943800 [Eh]
    Ind20,r (A<-B)      =    -0.002389233771 [Eh]
    Ind20,r (B<-A)      =    -0.004361553417 [Eh]
    Ind20,r             =    -0.006750787189 [Eh]
    Exch-Ind20,r (A<-B) =     0.001666491619 [Eh]
    Exch-Ind20,r (B<-A) =     0.002508563325 [Eh]
    Exch-Ind20,r        =     0.004175054943 [Eh]
    Disp20              =    -0.009497421874 [Eh]
    Disp20 (NO)         =    -0.008403778375 [Eh]
    Exch-Disp20         =     0.001380401910 [Eh]
    Elst12,r            =    -0.000755384329 [Eh]
    Exch11              =     0.000153730829 [Eh]
    Exch12              =     0.002738479558 [Eh]
    Ind22               =    -0.001327007568 [Eh]
    Disp21              =     0.000519775464 [Eh]
    Disp22 (SDQ)        =    -0.000055443907 [Eh]

    (i =   1 of  13)        464 seconds
    (i =   2 of  13)        856 seconds
    (i =   3 of  13)       1320 seconds
    (i =   4 of  13)       1779 seconds
    (i =   5 of  13)       2238 seconds
    (i =   6 of  13)       2698 seconds
    (i =   7 of  13)       3128 seconds
    (i =   8 of  13)       3498 seconds
    (i =   9 of  13)       3780 seconds
    (i =  10 of  13)       4023 seconds
    (i =  11 of  13)       4294 seconds
    (i =  12 of  13)       4544 seconds
    (i =  13 of  13)       4831 seconds

    Disp220 (T)         =    -0.000758617361 [Eh]

    (i =   1 of  13)        254 seconds
    (i =   2 of  13)        518 seconds
    (i =   3 of  13)        769 seconds
    (i =   4 of  13)       1016 seconds
    (i =   5 of  13)       1263 seconds
    (i =   6 of  13)       1509 seconds
    (i =   7 of  13)       1750 seconds
    (i =   8 of  13)       2050 seconds
    (i =   9 of  13)       2299 seconds
    (i =  10 of  13)       2548 seconds
    (i =  11 of  13)       2797 seconds
    (i =  12 of  13)       3045 seconds
    (i =  13 of  13)       3292 seconds

    Disp202 (T)         =    -0.000685905631 [Eh]

    Disp22 (T)          =    -0.001444522993 [Eh]

    Est. Disp220 (T)    =    -0.000857341639 [Eh]
    Est. Disp202 (T)    =    -0.000775167413 [Eh]

    Est. Disp22 (T)     =    -0.001632509052 [Eh]

    SAPT Results 
  --------------------------------------------------------------------------------------------------------
    Electrostatics                -15.40846738 [mEh]      -9.66895926 [kcal/mol]     -40.45492554 [kJ/mol]
      Elst10,r                    -14.65308305 [mEh]      -9.19494844 [kcal/mol]     -38.47166425 [kJ/mol]
      Elst12,r                     -0.75538433 [mEh]      -0.47401082 [kcal/mol]      -1.98326128 [kJ/mol]

    Exchange                       19.01415419 [mEh]      11.93156189 [kcal/mol]      49.92165494 [kJ/mol]
      Exch10                       16.12194380 [mEh]      10.11667247 [kcal/mol]      42.32815762 [kJ/mol]
      Exch10(S^2)                  16.00662860 [mEh]      10.04431109 [kcal/mol]      42.02539759 [kJ/mol]
      Exch11(S^2)                   0.15373083 [mEh]       0.09646755 [kcal/mol]       0.40362024 [kJ/mol]
      Exch12(S^2)                   2.73847956 [mEh]       1.71842187 [kcal/mol]       7.18987709 [kJ/mol]

    Induction                      -5.00332007 [mEh]      -3.13963074 [kcal/mol]     -13.13621502 [kJ/mol]
      Ind20,r                      -6.75078719 [mEh]      -4.23618292 [kcal/mol]     -17.72418932 [kJ/mol]
      Ind22                        -1.32700757 [mEh]      -0.83270982 [kcal/mol]      -3.48405789 [kJ/mol]
      Exch-Ind20,r                  4.17505494 [mEh]       2.61988653 [kcal/mol]      10.96160524 [kJ/mol]
      Exch-Ind22                    0.82069385 [mEh]       0.51499316 [kcal/mol]       2.15473140 [kJ/mol]
      delta HF,r (2)               -1.92127410 [mEh]      -1.20561770 [kcal/mol]      -5.04430445 [kJ/mol]

    Dispersion                     -9.28519746 [mEh]      -5.82654937 [kcal/mol]     -24.37828257 [kJ/mol]
      Disp20                       -9.49742187 [mEh]      -5.95972220 [kcal/mol]     -24.93547770 [kJ/mol]
      Disp21                        0.51977546 [mEh]       0.32616403 [kcal/mol]       1.36467029 [kJ/mol]
      Disp22 (SDQ)                 -0.05544391 [mEh]      -0.03479158 [kcal/mol]      -0.14556796 [kJ/mol]
      Disp22 (T)                   -1.44452299 [mEh]      -0.90645186 [kcal/mol]      -3.79259459 [kJ/mol]
      Est. Disp22 (T)              -1.63250905 [mEh]      -1.02441490 [kcal/mol]      -4.28615193 [kJ/mol]
      Exch-Disp20                   1.38040191 [mEh]       0.86621528 [kcal/mol]       3.62424472 [kJ/mol]

  Total HF                         -3.02814560 [mEh]      -1.90019005 [kcal/mol]      -7.95039517 [kJ/mol]
  Total SAPT0                     -11.14516556 [mEh]      -6.99369698 [kcal/mol]     -29.26162815 [kJ/mol]
  Total SAPT2                      -9.51465322 [mEh]      -5.97053504 [kcal/mol]     -24.98071860 [kJ/mol]
  Total SAPT2+                    -10.68283072 [mEh]      -6.70357748 [kcal/mol]     -28.04776819 [kJ/mol]

  Special recipe for scaled SAPT0 (see Manual):
    Electrostatics sSAPT0         -14.65308305 [mEh]      -9.19494844 [kcal/mol]     -38.47166425 [kJ/mol]
    Exchange sSAPT0                16.12194380 [mEh]      10.11667247 [kcal/mol]      42.32815762 [kJ/mol]
    Induction sSAPT0               -4.40612073 [mEh]      -2.76488250 [kcal/mol]     -11.56826838 [kJ/mol]
    Dispersion sSAPT0              -8.08697038 [mEh]      -5.07465053 [kcal/mol]     -21.23233780 [kJ/mol]
  Total sSAPT0                    -11.02423036 [mEh]      -6.91780899 [kcal/mol]     -28.94411282 [kJ/mol]
  --------------------------------------------------------------------------------------------------------

*** tstop() called on moses-razer at Sat Mar  1 17:54:40 2025
Module time:
	user time   =    9794.10 seconds =     163.24 minutes
	system time =     121.48 seconds =       2.02 minutes
	total time  =       9938 seconds =     165.63 minutes
Total time:
	user time   =   10150.75 seconds =     169.18 minutes
	system time =     128.35 seconds =       2.14 minutes
	total time  =      10302 seconds =     171.70 minutes

    Psi4 stopped on: Saturday, 01 March 2025 05:54PM
    Psi4 wall time for execution: 2:51:42.76

*** Psi4 exiting successfully. Buy a developer a beer!
