
    -----------------------------------------------------------------------
          Psi4: An Open-Source Ab Initio Electronic Structure Package
                               Psi4 1.9 release

                         Git: Rev {} zzzzzzz 


    D. G. A. Smith, L. A. Burns, A. C. Simmonett, R. M. Parrish,
    M. C. Schieber, R. Galvelis, P. Kraus, H. Kruse, R. Di Remigio,
    A. Alenaizan, A. M. James, S. Lehtola, J. P. Misiewicz, M. Scheurer,
    R. A. Shaw, J. B. Schriber, Y. Xie, Z. L. Glick, D. A. Sirianni,
    J. S. O'Brien, J. M. Waldrop, A. Kumar, E. G. Hohenstein,
    B. P. Pritchard, B. R. Brooks, H. F. Schaefer III, A. Yu. Sokolov,
    K. Patkowski, A. E. DePrince III, U. Bozkaya, R. A. King,
    F. A. Evangelista, J. M. Turney, T. D. Crawford, C. D. Sherrill,
    J. Chem. Phys. 152(18) 184108 (2020). https://doi.org/10.1063/5.0006002

                            Additional Code Authors
    E. T. Seidl, C. L. Janssen, E. F. Valeev, M. L. Leininger,
    J. F. Gonthier, R. M. Richard, H. R. McAlexander, M. Saitow, X. Wang,
    P. Verma, M. H. Lechner, A. Jiang, S. Behnle, A. G. Heide,
    M. F. Herbst, and D. L. Poole

             Previous Authors, Complete List of Code Contributors,
                       and Citations for Specific Modules
    https://github.com/psi4/psi4/blob/master/codemeta.json
    https://github.com/psi4/psi4/graphs/contributors
    http://psicode.org/psi4manual/master/introduction.html#citing-psifour

    -----------------------------------------------------------------------


    Psi4 started on: Sunday, 02 March 2025 06:53AM

    Process ID: 210678
    Host:       moses-razer
    PSIDATADIR: /home/kchung25/anaconda3/envs/psi4_19/share/psi4
    Memory:     500.0 MiB
    Threads:    1
    
  ==> Input File <==

--------------------------------------------------------------------------
MEMORY 10 GB

molecule dimer {
0 1
C    1.625795   1.155441  -0.267286
C    1.876613  -0.235139   0.256824
O    3.063286  -0.804528  -0.251867
H    3.788701  -0.205797  -0.058033
H    0.682970   1.544136   0.122725
H    1.585213   1.153594  -1.359080
H    2.425436   1.838207   0.037201
H    1.066426  -0.905073  -0.041732
H    1.879815  -0.227843   1.356430
--
0 1
C   -3.312830  -0.085440  -0.406548
C   -1.826379  -0.307294  -0.290228
O   -1.298452   0.193646   0.918383
H   -1.751106  -0.233912   1.649788
H   -3.690820  -0.443188  -1.366367
H   -3.550561   0.975888  -0.314150
H   -3.850088  -0.622055   0.381097
H   -1.296004   0.221932  -1.087215
H   -1.587842  -1.374235  -0.409365

units ang
no_reorient
no_com
symmetry c1
}

set {
basis        aug-cc-pVTZ
scf_type     df
}

energy("sapt2+")
--------------------------------------------------------------------------

  Memory set to   9.313 GiB by Python driver.

Scratch directory: /scratch/
   => Loading Basis Set <=

    Name: AUG-CC-PVTZ
    Role: ORBITAL
    Keyword: BASIS
    atoms 1-2, 10-11 entry C          line   239 file /home/kchung25/anaconda3/envs/p415env/share/psi4/basis/aug-cc-pvtz.gbs 
    atoms 3, 12      entry O          line   331 file /home/kchung25/anaconda3/envs/p415env/share/psi4/basis/aug-cc-pvtz.gbs 
    atoms 4-9, 13-18 entry H          line    40 file /home/kchung25/anaconda3/envs/p415env/share/psi4/basis/aug-cc-pvtz.gbs 

   => Loading Basis Set <=

    Name: AUG-CC-PVTZ
    Role: ORBITAL
    Keyword: BASIS
    atoms 1-2, 10-11 entry C          line   239 file /home/kchung25/anaconda3/envs/p415env/share/psi4/basis/aug-cc-pvtz.gbs 
    atoms 3, 12      entry O          line   331 file /home/kchung25/anaconda3/envs/p415env/share/psi4/basis/aug-cc-pvtz.gbs 
    atoms 4-9, 13-18 entry H          line    40 file /home/kchung25/anaconda3/envs/p415env/share/psi4/basis/aug-cc-pvtz.gbs 


  //>>>>>>>>>>>>>>>>>>>>>>>>>>>>>>>>>>>//
  //              Dimer HF             //
  //<<<<<<<<<<<<<<<<<<<<<<<<<<<<<<<<<<<//

   => Libint2 <=

    Primary   basis highest AM E, G, H:  5, 4, 3
    Auxiliary basis highest AM E, G, H:  6, 5, 4
    Onebody   basis highest AM E, G, H:  6, 5, 4
    Solid Harmonics ordering:            gaussian

*** tstart() called on moses-razer
*** at Sun Mar  2 06:53:47 2025

   => Loading Basis Set <=

    Name: AUG-CC-PVTZ
    Role: ORBITAL
    Keyword: BASIS
    atoms 1-2, 10-11 entry C          line   239 file /home/kchung25/anaconda3/envs/p415env/share/psi4/basis/aug-cc-pvtz.gbs 
    atoms 3, 12      entry O          line   331 file /home/kchung25/anaconda3/envs/p415env/share/psi4/basis/aug-cc-pvtz.gbs 
    atoms 4-9, 13-18 entry H          line    40 file /home/kchung25/anaconda3/envs/p415env/share/psi4/basis/aug-cc-pvtz.gbs 


         ---------------------------------------------------------
                                   SCF
               by Justin Turney, Rob Parrish, Andy Simmonett
                          and Daniel G. A. Smith
                              RHF Reference
                        1 Threads,   9536 MiB Core
         ---------------------------------------------------------

  ==> Geometry <==

    Molecular point group: c1
    Full point group: C1

    Geometry (in Angstrom), charge = 0, multiplicity = 1:

       Center              X                  Y                   Z               Mass       
    ------------   -----------------  -----------------  -----------------  -----------------
         C            1.625795000000     1.155441000000    -0.267286000000    12.000000000000
         C            1.876613000000    -0.235139000000     0.256824000000    12.000000000000
         O            3.063286000000    -0.804528000000    -0.251867000000    15.994914619570
         H            3.788701000000    -0.205797000000    -0.058033000000     1.007825032230
         H            0.682970000000     1.544136000000     0.122725000000     1.007825032230
         H            1.585213000000     1.153594000000    -1.359080000000     1.007825032230
         H            2.425436000000     1.838207000000     0.037201000000     1.007825032230
         H            1.066426000000    -0.905073000000    -0.041732000000     1.007825032230
         H            1.879815000000    -0.227843000000     1.356430000000     1.007825032230
         C           -3.312830000000    -0.085440000000    -0.406548000000    12.000000000000
         C           -1.826379000000    -0.307294000000    -0.290228000000    12.000000000000
         O           -1.298452000000     0.193646000000     0.918383000000    15.994914619570
         H           -1.751106000000    -0.233912000000     1.649788000000     1.007825032230
         H           -3.690820000000    -0.443188000000    -1.366367000000     1.007825032230
         H           -3.550561000000     0.975888000000    -0.314150000000     1.007825032230
         H           -3.850088000000    -0.622055000000     0.381097000000     1.007825032230
         H           -1.296004000000     0.221932000000    -1.087215000000     1.007825032230
         H           -1.587842000000    -1.374235000000    -0.409365000000     1.007825032230

  Running in c1 symmetry.

  Rotational constants: A =      0.24282  B =      0.03189  C =      0.03120 [cm^-1]
  Rotational constants: A =   7279.45817  B =    956.02014  C =    935.40360 [MHz]
  Nuclear repulsion =  246.869720916952815

  Charge       = 0
  Multiplicity = 1
  Electrons    = 52
  Nalpha       = 26
  Nbeta        = 26

  ==> Algorithm <==

  SCF Algorithm Type is DF.
  DIIS enabled.
  MOM disabled.
  Fractional occupation disabled.
  Guess Type is SAD.
  Energy threshold   = 1.00e-08
  Density threshold  = 1.00e-08
  Integral threshold = 1.00e-12

  ==> Primary Basis <==

  Basis Set: AUG-CC-PVTZ
    Blend: AUG-CC-PVTZ
    Number of shells: 192
    Number of basis functions: 552
    Number of Cartesian functions: 630
    Spherical Harmonics?: true
    Max angular momentum: 3

   => Loading Basis Set <=

    Name: (AUG-CC-PVTZ AUX)
    Role: JKFIT
    Keyword: DF_BASIS_SCF
    atoms 1-2, 10-11 entry C          line   162 file /home/kchung25/anaconda3/envs/p415env/share/psi4/basis/aug-cc-pvtz-jkfit.gbs 
    atoms 3, 12      entry O          line   286 file /home/kchung25/anaconda3/envs/p415env/share/psi4/basis/aug-cc-pvtz-jkfit.gbs 
    atoms 4-9, 13-18 entry H          line    70 file /home/kchung25/anaconda3/envs/p415env/share/psi4/basis/aug-cc-pvtz-jkfit.gbs 

  ==> Integral Setup <==

  ==> DiskDFJK: Density-Fitted J/K Matrices <==

    J tasked:                  Yes
    K tasked:                  Yes
    wK tasked:                  No
    OpenMP threads:              1
    Integrals threads:           1
    Memory [MiB]:             7152
    Algorithm:                Core
    Integral Cache:           SAVE
    Schwarz Cutoff:          1E-12
    Fitting Condition:       1E-10

   => Auxiliary Basis Set <=

  Basis Set: (AUG-CC-PVTZ AUX)
    Blend: AUG-CC-PVTZ-JKFIT
    Number of shells: 348
    Number of basis functions: 1176
    Number of Cartesian functions: 1446
    Spherical Harmonics?: true
    Max angular momentum: 4

  Minimum eigenvalue in the overlap matrix is 9.6314947136E-06.
  Reciprocal condition number of the overlap matrix is 5.3862220440E-07.
    Using symmetric orthogonalization.

  ==> Pre-Iterations <==

  SCF Guess: Superposition of Atomic Densities via on-the-fly atomic UHF (no occupation information).

   -------------------------
    Irrep   Nso     Nmo    
   -------------------------
     A        552     552 
   -------------------------
    Total     552     552
   -------------------------

  ==> Iterations <==

                           Total Energy        Delta E     RMS |[F,P]|

   @DF-RHF iter SAD:  -307.02699732876130   -3.07027e+02   0.00000e+00 
   @DF-RHF iter   1:  -308.00817089713740   -9.81174e-01   1.31522e-03 ADIIS/DIIS
   @DF-RHF iter   2:  -308.23227867112951   -2.24108e-01   6.81750e-04 ADIIS/DIIS
   @DF-RHF iter   3:  -308.28566460083329   -5.33859e-02   1.18441e-04 ADIIS/DIIS
   @DF-RHF iter   4:  -308.28882546805977   -3.16087e-03   4.44735e-05 DIIS
   @DF-RHF iter   5:  -308.28917889066827   -3.53423e-04   8.66502e-06 DIIS
   @DF-RHF iter   6:  -308.28919928923034   -2.03986e-05   2.03092e-06 DIIS
   @DF-RHF iter   7:  -308.28920075427123   -1.46504e-06   5.79814e-07 DIIS
   @DF-RHF iter   8:  -308.28920086648810   -1.12217e-07   1.77586e-07 DIIS
   @DF-RHF iter   9:  -308.28920087827134   -1.17832e-08   4.70516e-08 DIIS
   @DF-RHF iter  10:  -308.28920087912257   -8.51230e-10   9.72747e-09 DIIS
  Energy and wave function converged.


  ==> Post-Iterations <==

    Orbital Energies [Eh]
    ---------------------

    Doubly Occupied:                                                      

       1A    -20.561784     2A    -20.545244     3A    -11.278449  
       4A    -11.259568     5A    -11.221889     6A    -11.203141  
       7A     -1.369221     8A     -1.351476     9A     -1.019090  
      10A     -1.000865    11A     -0.853881    12A     -0.835279  
      13A     -0.694523    14A     -0.674431    15A     -0.635427  
      16A     -0.620889    17A     -0.605830    18A     -0.600220  
      19A     -0.550281    20A     -0.531456    21A     -0.531221  
      22A     -0.510897    23A     -0.486460    24A     -0.468153  
      25A     -0.449536    26A     -0.430646  

    Virtual:                                                              

      27A      0.027089    28A      0.035253    29A      0.036362  
      30A      0.040142    31A      0.050248    32A      0.052668  
      33A      0.054841    34A      0.062652    35A      0.073144  
      36A      0.079753    37A      0.083073    38A      0.084864  
      39A      0.099888    40A      0.116465    41A      0.121319  
      42A      0.129659    43A      0.130744    44A      0.136041  
      45A      0.141099    46A      0.144630    47A      0.147044  
      48A      0.151177    49A      0.155408    50A      0.158200  
      51A      0.176132    52A      0.180209    53A      0.189897  
      54A      0.192959    55A      0.203852    56A      0.208212  
      57A      0.218249    58A      0.228817    59A      0.232338  
      60A      0.240456    61A      0.243131    62A      0.247402  
      63A      0.263114    64A      0.268588    65A      0.271615  
      66A      0.277617    67A      0.283665    68A      0.289486  
      69A      0.303677    70A      0.309434    71A      0.311839  
      72A      0.325148    73A      0.331919    74A      0.338434  
      75A      0.344716    76A      0.348305    77A      0.351849  
      78A      0.354788    79A      0.362732    80A      0.366685  
      81A      0.368513    82A      0.377111    83A      0.381718  
      84A      0.387737    85A      0.389303    86A      0.392466  
      87A      0.402504    88A      0.404511    89A      0.411590  
      90A      0.414469    91A      0.422256    92A      0.425021  
      93A      0.428796    94A      0.435466    95A      0.436956  
      96A      0.443119    97A      0.447600    98A      0.457134  
      99A      0.457928   100A      0.463996   101A      0.471637  
     102A      0.474041   103A      0.479983   104A      0.480984  
     105A      0.485284   106A      0.492728   107A      0.497235  
     108A      0.506977   109A      0.512313   110A      0.514788  
     111A      0.517865   112A      0.522602   113A      0.528725  
     114A      0.539400   115A      0.547287   116A      0.552495  
     117A      0.559999   118A      0.569131   119A      0.572439  
     120A      0.582246   121A      0.587721   122A      0.595397  
     123A      0.604637   124A      0.609511   125A      0.611670  
     126A      0.623117   127A      0.641580   128A      0.650938  
     129A      0.652428   130A      0.672793   131A      0.678287  
     132A      0.682855   133A      0.692371   134A      0.701366  
     135A      0.720990   136A      0.748023   137A      0.757011  
     138A      0.778427   139A      0.789401   140A      0.793436  
     141A      0.803610   142A      0.808014   143A      0.814008  
     144A      0.819463   145A      0.826999   146A      0.834834  
     147A      0.841392   148A      0.842582   149A      0.853100  
     150A      0.855505   151A      0.864265   152A      0.871182  
     153A      0.880866   154A      0.884349   155A      0.886406  
     156A      0.888788   157A      0.897053   158A      0.904344  
     159A      0.917601   160A      0.922360   161A      0.934960  
     162A      0.938669   163A      0.941552   164A      0.953385  
     165A      0.957731   166A      0.960419   167A      0.973547  
     168A      0.977050   169A      0.980708   170A      0.985474  
     171A      0.996204   172A      1.005814   173A      1.007506  
     174A      1.022541   175A      1.024024   176A      1.027010  
     177A      1.036292   178A      1.041339   179A      1.048295  
     180A      1.052404   181A      1.065151   182A      1.071146  
     183A      1.078531   184A      1.085357   185A      1.099715  
     186A      1.101715   187A      1.113172   188A      1.115817  
     189A      1.121755   190A      1.127897   191A      1.135981  
     192A      1.141480   193A      1.147424   194A      1.156319  
     195A      1.165432   196A      1.178574   197A      1.183318  
     198A      1.187747   199A      1.200901   200A      1.208264  
     201A      1.212126   202A      1.219796   203A      1.221776  
     204A      1.226586   205A      1.237054   206A      1.244908  
     207A      1.257935   208A      1.266166   209A      1.267195  
     210A      1.282003   211A      1.291418   212A      1.296606  
     213A      1.301838   214A      1.321168   215A      1.327326  
     216A      1.334531   217A      1.345070   218A      1.353532  
     219A      1.358233   220A      1.377531   221A      1.382163  
     222A      1.389697   223A      1.410631   224A      1.413626  
     225A      1.430352   226A      1.436316   227A      1.449924  
     228A      1.454146   229A      1.462415   230A      1.470232  
     231A      1.488141   232A      1.489758   233A      1.502828  
     234A      1.517450   235A      1.528679   236A      1.546550  
     237A      1.549985   238A      1.554977   239A      1.581241  
     240A      1.590973   241A      1.598588   242A      1.610229  
     243A      1.613207   244A      1.638940   245A      1.644030  
     246A      1.652842   247A      1.659204   248A      1.669810  
     249A      1.672556   250A      1.684459   251A      1.690180  
     252A      1.693055   253A      1.701883   254A      1.717157  
     255A      1.721098   256A      1.726046   257A      1.734179  
     258A      1.735875   259A      1.745254   260A      1.753032  
     261A      1.768792   262A      1.779035   263A      1.782159  
     264A      1.792497   265A      1.805369   266A      1.810877  
     267A      1.819783   268A      1.828684   269A      1.837408  
     270A      1.862180   271A      1.878010   272A      1.883863  
     273A      1.885869   274A      1.902989   275A      1.907319  
     276A      1.918417   277A      1.934666   278A      1.950995  
     279A      1.958632   280A      1.965641   281A      1.977368  
     282A      1.980565   283A      1.997867   284A      2.011745  
     285A      2.023597   286A      2.034986   287A      2.041406  
     288A      2.043007   289A      2.060012   290A      2.079426  
     291A      2.091932   292A      2.109080   293A      2.134248  
     294A      2.138429   295A      2.151729   296A      2.172252  
     297A      2.185922   298A      2.198251   299A      2.206067  
     300A      2.217364   301A      2.231643   302A      2.248103  
     303A      2.257730   304A      2.275118   305A      2.277746  
     306A      2.296837   307A      2.325037   308A      2.334336  
     309A      2.339630   310A      2.340541   311A      2.363853  
     312A      2.375172   313A      2.383532   314A      2.419775  
     315A      2.434101   316A      2.451623   317A      2.479430  
     318A      2.502464   319A      2.536645   320A      2.594133  
     321A      2.603661   322A      2.632224   323A      2.661910  
     324A      2.679591   325A      2.689381   326A      2.701247  
     327A      2.747870   328A      2.762160   329A      2.787334  
     330A      2.829132   331A      2.856838   332A      2.858691  
     333A      2.894854   334A      2.913156   335A      2.929796  
     336A      2.966191   337A      2.991666   338A      2.995417  
     339A      3.001055   340A      3.040605   341A      3.059338  
     342A      3.072370   343A      3.108634   344A      3.140979  
     345A      3.185928   346A      3.212034   347A      3.217650  
     348A      3.257624   349A      3.277920   350A      3.304271  
     351A      3.375990   352A      3.425372   353A      3.437487  
     354A      3.451586   355A      3.478100   356A      3.483502  
     357A      3.487429   358A      3.514241   359A      3.531534  
     360A      3.556537   361A      3.598272   362A      3.613303  
     363A      3.623877   364A      3.641017   365A      3.661483  
     366A      3.664212   367A      3.677140   368A      3.678448  
     369A      3.703271   370A      3.709883   371A      3.732960  
     372A      3.746129   373A      3.755595   374A      3.766399  
     375A      3.779618   376A      3.801027   377A      3.818846  
     378A      3.822096   379A      3.841036   380A      3.854605  
     381A      3.868225   382A      3.877740   383A      3.901932  
     384A      3.909914   385A      3.937470   386A      3.950320  
     387A      3.957368   388A      3.969355   389A      3.974437  
     390A      3.987853   391A      3.992795   392A      4.006222  
     393A      4.013938   394A      4.045506   395A      4.059449  
     396A      4.069789   397A      4.075493   398A      4.099508  
     399A      4.116866   400A      4.126266   401A      4.145825  
     402A      4.150652   403A      4.159395   404A      4.163438  
     405A      4.185556   406A      4.198798   407A      4.213281  
     408A      4.220034   409A      4.232072   410A      4.244310  
     411A      4.260130   412A      4.267315   413A      4.293899  
     414A      4.349486   415A      4.352785   416A      4.376048  
     417A      4.381992   418A      4.399411   419A      4.402224  
     420A      4.428165   421A      4.466249   422A      4.477765  
     423A      4.506008   424A      4.530862   425A      4.546725  
     426A      4.567971   427A      4.577806   428A      4.594987  
     429A      4.597934   430A      4.601747   431A      4.628877  
     432A      4.658325   433A      4.673142   434A      4.682277  
     435A      4.717790   436A      4.724737   437A      4.733866  
     438A      4.754929   439A      4.773618   440A      4.790994  
     441A      4.810632   442A      4.813383   443A      4.844552  
     444A      4.848684   445A      4.865667   446A      4.882747  
     447A      4.897079   448A      4.916628   449A      4.949210  
     450A      4.950449   451A      4.960812   452A      4.967495  
     453A      4.984207   454A      4.996828   455A      5.003815  
     456A      5.022606   457A      5.042248   458A      5.052466  
     459A      5.080677   460A      5.101671   461A      5.149984  
     462A      5.159315   463A      5.168502   464A      5.188533  
     465A      5.196449   466A      5.215281   467A      5.225279  
     468A      5.239149   469A      5.270655   470A      5.275503  
     471A      5.305420   472A      5.314093   473A      5.350853  
     474A      5.375385   475A      5.397275   476A      5.425679  
     477A      5.432433   478A      5.439637   479A      5.473283  
     480A      5.508403   481A      5.511876   482A      5.514320  
     483A      5.558373   484A      5.563195   485A      5.580922  
     486A      5.589916   487A      5.611365   488A      5.638255  
     489A      5.648651   490A      5.670169   491A      5.686521  
     492A      5.701311   493A      5.727275   494A      5.758430  
     495A      5.787240   496A      5.827986   497A      5.861174  
     498A      5.886784   499A      6.002400   500A      6.039201  
     501A      6.057194   502A      6.088034   503A      6.107063  
     504A      6.142401   505A      6.165592   506A      6.205352  
     507A      6.228270   508A      6.238298   509A      6.267020  
     510A      6.276812   511A      6.293801   512A      6.336929  
     513A      6.406060   514A      6.450383   515A      6.710135  
     516A      6.722325   517A      6.727362   518A      6.746798  
     519A      6.782085   520A      6.842254   521A      6.861832  
     522A      6.921154   523A      6.965087   524A      6.982135  
     525A      7.011695   526A      7.025519   527A      7.144205  
     528A      7.182696   529A      7.357990   530A      7.368165  
     531A      7.397527   532A      7.411200   533A      7.476874  
     534A      7.499498   535A      7.540749   536A      7.547686  
     537A      7.660449   538A      7.716623   539A      7.855791  
     540A      7.864631   541A      7.941028   542A      8.000920  
     543A      8.253318   544A      8.272515   545A      8.601874  
     546A      8.679287   547A     16.216632   548A     16.408177  
     549A     17.853813   550A     17.899288   551A     18.730079  
     552A     18.872610  

    Final Occupation by Irrep:
              A 
    DOCC [    26 ]
    NA   [    26 ]
    NB   [    26 ]

  @DF-RHF Final Energy:  -308.28920087912257

   => Energetics <=

    Nuclear Repulsion Energy =            246.8697209169528151
    One-Electron Energy =                -909.7381282013670898
    Two-Electron Energy =                 354.5792064052916999
    Total Energy =                       -308.2892008791225749

Computation Completed


Properties will be evaluated at   0.000000,   0.000000,   0.000000 [a0]

Properties computed using the SCF density matrix


 Multipole Moments:

 ------------------------------------------------------------------------------------
     Multipole            Electronic (a.u.)      Nuclear  (a.u.)        Total (a.u.)
 ------------------------------------------------------------------------------------

 L = 1.  Multiply by 2.5417464519 to convert [e a0] to [Debye]
 Dipole X            :         -0.7781369            0.0000113           -0.7781256
 Dipole Y            :          0.1837473            0.0000113            0.1837587
 Dipole Z            :          0.2741232           -0.0000019            0.2741213
 Magnitude           :                                                    0.8452155

 ------------------------------------------------------------------------------------

*** tstop() called on moses-razer at Sun Mar  2 06:56:11 2025
Module time:
	user time   =     140.15 seconds =       2.34 minutes
	system time =       3.30 seconds =       0.06 minutes
	total time  =        144 seconds =       2.40 minutes
Total time:
	user time   =     140.15 seconds =       2.34 minutes
	system time =       3.30 seconds =       0.06 minutes
	total time  =        144 seconds =       2.40 minutes

  //>>>>>>>>>>>>>>>>>>>>>>>>>>>>>>>>>>>//
  //            Monomer A HF           //
  //<<<<<<<<<<<<<<<<<<<<<<<<<<<<<<<<<<<//

   => Libint2 <=

    Primary   basis highest AM E, G, H:  5, 4, 3
    Auxiliary basis highest AM E, G, H:  6, 5, 4
    Onebody   basis highest AM E, G, H:  6, 5, 4
    Solid Harmonics ordering:            gaussian

*** tstart() called on moses-razer
*** at Sun Mar  2 06:56:11 2025

   => Loading Basis Set <=

    Name: AUG-CC-PVTZ
    Role: ORBITAL
    Keyword: BASIS
    atoms 1-2, 10-11 entry C          line   239 file /home/kchung25/anaconda3/envs/p415env/share/psi4/basis/aug-cc-pvtz.gbs 
    atoms 3, 12      entry O          line   331 file /home/kchung25/anaconda3/envs/p415env/share/psi4/basis/aug-cc-pvtz.gbs 
    atoms 4-9, 13-18 entry H          line    40 file /home/kchung25/anaconda3/envs/p415env/share/psi4/basis/aug-cc-pvtz.gbs 


         ---------------------------------------------------------
                                   SCF
               by Justin Turney, Rob Parrish, Andy Simmonett
                          and Daniel G. A. Smith
                              RHF Reference
                        1 Threads,   9536 MiB Core
         ---------------------------------------------------------

  ==> Geometry <==

    Molecular point group: c1
    Full point group: C1

    Geometry (in Angstrom), charge = 0, multiplicity = 1:

       Center              X                  Y                   Z               Mass       
    ------------   -----------------  -----------------  -----------------  -----------------
         C            1.625795000000     1.155441000000    -0.267286000000    12.000000000000
         C            1.876613000000    -0.235139000000     0.256824000000    12.000000000000
         O            3.063286000000    -0.804528000000    -0.251867000000    15.994914619570
         H            3.788701000000    -0.205797000000    -0.058033000000     1.007825032230
         H            0.682970000000     1.544136000000     0.122725000000     1.007825032230
         H            1.585213000000     1.153594000000    -1.359080000000     1.007825032230
         H            2.425436000000     1.838207000000     0.037201000000     1.007825032230
         H            1.066426000000    -0.905073000000    -0.041732000000     1.007825032230
         H            1.879815000000    -0.227843000000     1.356430000000     1.007825032230
      Gh(C)          -3.312830000000    -0.085440000000    -0.406548000000    12.000000000000
      Gh(C)          -1.826379000000    -0.307294000000    -0.290228000000    12.000000000000
      Gh(O)          -1.298452000000     0.193646000000     0.918383000000    15.994914619570
      Gh(H)          -1.751106000000    -0.233912000000     1.649788000000     1.007825032230
      Gh(H)          -3.690820000000    -0.443188000000    -1.366367000000     1.007825032230
      Gh(H)          -3.550561000000     0.975888000000    -0.314150000000     1.007825032230
      Gh(H)          -3.850088000000    -0.622055000000     0.381097000000     1.007825032230
      Gh(H)          -1.296004000000     0.221932000000    -1.087215000000     1.007825032230
      Gh(H)          -1.587842000000    -1.374235000000    -0.409365000000     1.007825032230

  Running in c1 symmetry.

  Rotational constants: A =      0.24282  B =      0.03189  C =      0.03120 [cm^-1]
  Rotational constants: A =   7279.45817  B =    956.02014  C =    935.40360 [MHz]
  Nuclear repulsion =   82.140697115833689

  Charge       = 0
  Multiplicity = 1
  Electrons    = 26
  Nalpha       = 13
  Nbeta        = 13

  ==> Algorithm <==

  SCF Algorithm Type is DF.
  DIIS enabled.
  MOM disabled.
  Fractional occupation disabled.
  Guess Type is SAD.
  Energy threshold   = 1.00e-08
  Density threshold  = 1.00e-08
  Integral threshold = 1.00e-12

  ==> Primary Basis <==

  Basis Set: AUG-CC-PVTZ
    Blend: AUG-CC-PVTZ
    Number of shells: 192
    Number of basis functions: 552
    Number of Cartesian functions: 630
    Spherical Harmonics?: true
    Max angular momentum: 3

   => Loading Basis Set <=

    Name: (AUG-CC-PVTZ AUX)
    Role: JKFIT
    Keyword: DF_BASIS_SCF
    atoms 1-2, 10-11 entry C          line   162 file /home/kchung25/anaconda3/envs/p415env/share/psi4/basis/aug-cc-pvtz-jkfit.gbs 
    atoms 3, 12      entry O          line   286 file /home/kchung25/anaconda3/envs/p415env/share/psi4/basis/aug-cc-pvtz-jkfit.gbs 
    atoms 4-9, 13-18 entry H          line    70 file /home/kchung25/anaconda3/envs/p415env/share/psi4/basis/aug-cc-pvtz-jkfit.gbs 

  ==> Integral Setup <==

  ==> DiskDFJK: Density-Fitted J/K Matrices <==

    J tasked:                  Yes
    K tasked:                  Yes
    wK tasked:                  No
    OpenMP threads:              1
    Integrals threads:           1
    Memory [MiB]:             7152
    Algorithm:                Core
    Integral Cache:           LOAD
    Schwarz Cutoff:          1E-12
    Fitting Condition:       1E-10

   => Auxiliary Basis Set <=

  Basis Set: (AUG-CC-PVTZ AUX)
    Blend: AUG-CC-PVTZ-JKFIT
    Number of shells: 348
    Number of basis functions: 1176
    Number of Cartesian functions: 1446
    Spherical Harmonics?: true
    Max angular momentum: 4

  Minimum eigenvalue in the overlap matrix is 9.6314947136E-06.
  Reciprocal condition number of the overlap matrix is 5.3862220440E-07.
    Using symmetric orthogonalization.

  ==> Pre-Iterations <==

  SCF Guess: Superposition of Atomic Densities via on-the-fly atomic UHF (no occupation information).

   -------------------------
    Irrep   Nso     Nmo    
   -------------------------
     A        552     552 
   -------------------------
    Total     552     552
   -------------------------

  ==> Iterations <==

                           Total Energy        Delta E     RMS |[F,P]|

   @DF-RHF iter SAD:  -153.45736630279438   -1.53457e+02   0.00000e+00 
   @DF-RHF iter   1:  -154.00369913235605   -5.46333e-01   9.36567e-04 ADIIS/DIIS
   @DF-RHF iter   2:  -154.11546533701943   -1.11766e-01   4.93963e-04 ADIIS/DIIS
   @DF-RHF iter   3:  -154.14325039754496   -2.77851e-02   8.37831e-05 DIIS
   @DF-RHF iter   4:  -154.14482426144741   -1.57386e-03   3.20582e-05 DIIS
   @DF-RHF iter   5:  -154.14500981531140   -1.85554e-04   6.20996e-06 DIIS
   @DF-RHF iter   6:  -154.14502005475214   -1.02394e-05   1.42242e-06 DIIS
   @DF-RHF iter   7:  -154.14502078623539   -7.31483e-07   4.04170e-07 DIIS
   @DF-RHF iter   8:  -154.14502084084310   -5.46077e-08   1.28037e-07 DIIS
   @DF-RHF iter   9:  -154.14502084696375   -6.12064e-09   3.29045e-08 DIIS
   @DF-RHF iter  10:  -154.14502084739141   -4.27661e-10   6.27643e-09 DIIS
  Energy and wave function converged.


  ==> Post-Iterations <==

    Orbital Energies [Eh]
    ---------------------

    Doubly Occupied:                                                      

       1A    -20.555742     2A    -11.273275     3A    -11.218880  
       4A     -1.361942     5A     -1.015246     6A     -0.848350  
       7A     -0.686262     8A     -0.626321     9A     -0.612905  
      10A     -0.543805    11A     -0.527446    12A     -0.481380  
      13A     -0.442587  

    Virtual:                                                              

      14A      0.021031    15A      0.031043    16A      0.036540  
      17A      0.038297    18A      0.048041    19A      0.051414  
      20A      0.053042    21A      0.062477    22A      0.073072  
      23A      0.077419    24A      0.077766    25A      0.085999  
      26A      0.093797    27A      0.099708    28A      0.112260  
      29A      0.119861    30A      0.121963    31A      0.125653  
      32A      0.131632    33A      0.134535    34A      0.140932  
      35A      0.145428    36A      0.151981    37A      0.153708  
      38A      0.168402    39A      0.172865    40A      0.183723  
      41A      0.187361    42A      0.194326    43A      0.206046  
      44A      0.212723    45A      0.226002    46A      0.231921  
      47A      0.238143    48A      0.244747    49A      0.247491  
      50A      0.250411    51A      0.260109    52A      0.265504  
      53A      0.270064    54A      0.280500    55A      0.282356  
      56A      0.289799    57A      0.296733    58A      0.306362  
      59A      0.311941    60A      0.316929    61A      0.320899  
      62A      0.326085    63A      0.332846    64A      0.347238  
      65A      0.353649    66A      0.356811    67A      0.363199  
      68A      0.365114    69A      0.373396    70A      0.374741  
      71A      0.378662    72A      0.385459    73A      0.389228  
      74A      0.394176    75A      0.396880    76A      0.405225  
      77A      0.407454    78A      0.414929    79A      0.421519  
      80A      0.427912    81A      0.436491    82A      0.438175  
      83A      0.445020    84A      0.447468    85A      0.458028  
      86A      0.462273    87A      0.466005    88A      0.469841  
      89A      0.476559    90A      0.484064    91A      0.486081  
      92A      0.491692    93A      0.497720    94A      0.503708  
      95A      0.514562    96A      0.516819    97A      0.525966  
      98A      0.528688    99A      0.534005   100A      0.544742  
     101A      0.548050   102A      0.555292   103A      0.560543  
     104A      0.564577   105A      0.579220   106A      0.586344  
     107A      0.589981   108A      0.600461   109A      0.604613  
     110A      0.608265   111A      0.616281   112A      0.630225  
     113A      0.633990   114A      0.642372   115A      0.648360  
     116A      0.662118   117A      0.668148   118A      0.676024  
     119A      0.679879   120A      0.681214   121A      0.692736  
     122A      0.711805   123A      0.717178   124A      0.720576  
     125A      0.746941   126A      0.751515   127A      0.766580  
     128A      0.771677   129A      0.787920   130A      0.792424  
     131A      0.807993   132A      0.818167   133A      0.833610  
     134A      0.837109   135A      0.852003   136A      0.859881  
     137A      0.863277   138A      0.870837   139A      0.879596  
     140A      0.895896   141A      0.906092   142A      0.911255  
     143A      0.916916   144A      0.923767   145A      0.932779  
     146A      0.935116   147A      0.945730   148A      0.957701  
     149A      0.961840   150A      0.977429   151A      0.986286  
     152A      0.992147   153A      0.998041   154A      0.999473  
     155A      1.006824   156A      1.015026   157A      1.021825  
     158A      1.029278   159A      1.035255   160A      1.042773  
     161A      1.054620   162A      1.055664   163A      1.059143  
     164A      1.065757   165A      1.068072   166A      1.083004  
     167A      1.086015   168A      1.092293   169A      1.097519  
     170A      1.110143   171A      1.112962   172A      1.114710  
     173A      1.124689   174A      1.128231   175A      1.138243  
     176A      1.143188   177A      1.149918   178A      1.159029  
     179A      1.163063   180A      1.164947   181A      1.176664  
     182A      1.188585   183A      1.193929   184A      1.204889  
     185A      1.210961   186A      1.217412   187A      1.229550  
     188A      1.237486   189A      1.242146   190A      1.245718  
     191A      1.254046   192A      1.263116   193A      1.271844  
     194A      1.282266   195A      1.289497   196A      1.294259  
     197A      1.305707   198A      1.313653   199A      1.320994  
     200A      1.324749   201A      1.340742   202A      1.342903  
     203A      1.345913   204A      1.355490   205A      1.362630  
     206A      1.371247   207A      1.373287   208A      1.383733  
     209A      1.397180   210A      1.406241   211A      1.415207  
     212A      1.428648   213A      1.434186   214A      1.449247  
     215A      1.461113   216A      1.461961   217A      1.471652  
     218A      1.480603   219A      1.488502   220A      1.495824  
     221A      1.502756   222A      1.517390   223A      1.526142  
     224A      1.534939   225A      1.550410   226A      1.565360  
     227A      1.578744   228A      1.584691   229A      1.603810  
     230A      1.612912   231A      1.622033   232A      1.635246  
     233A      1.647347   234A      1.652982   235A      1.672801  
     236A      1.688732   237A      1.692961   238A      1.699403  
     239A      1.708833   240A      1.721621   241A      1.726319  
     242A      1.735407   243A      1.744046   244A      1.757720  
     245A      1.767293   246A      1.772059   247A      1.789256  
     248A      1.799193   249A      1.802525   250A      1.819646  
     251A      1.829712   252A      1.839374   253A      1.856209  
     254A      1.863802   255A      1.875588   256A      1.885910  
     257A      1.897577   258A      1.917711   259A      1.926032  
     260A      1.932719   261A      1.950644   262A      1.966320  
     263A      1.971330   264A      1.976567   265A      1.985256  
     266A      1.995173   267A      2.009204   268A      2.013098  
     269A      2.028568   270A      2.053641   271A      2.061701  
     272A      2.067993   273A      2.087343   274A      2.093110  
     275A      2.117287   276A      2.120264   277A      2.133037  
     278A      2.140788   279A      2.162779   280A      2.164656  
     281A      2.183464   282A      2.187741   283A      2.208704  
     284A      2.231480   285A      2.253557   286A      2.268321  
     287A      2.276094   288A      2.282225   289A      2.300421  
     290A      2.307985   291A      2.318555   292A      2.330148  
     293A      2.336585   294A      2.344837   295A      2.360362  
     296A      2.377470   297A      2.402074   298A      2.413869  
     299A      2.425106   300A      2.439768   301A      2.461279  
     302A      2.474875   303A      2.485247   304A      2.508464  
     305A      2.552821   306A      2.584506   307A      2.610500  
     308A      2.615959   309A      2.653226   310A      2.674625  
     311A      2.684945   312A      2.714772   313A      2.719705  
     314A      2.761772   315A      2.766408   316A      2.769755  
     317A      2.788168   318A      2.802567   319A      2.832904  
     320A      2.858787   321A      2.870446   322A      2.881042  
     323A      2.898627   324A      2.919690   325A      2.942972  
     326A      2.966429   327A      3.010906   328A      3.024498  
     329A      3.054397   330A      3.091196   331A      3.110440  
     332A      3.148081   333A      3.162483   334A      3.219339  
     335A      3.227039   336A      3.267362   337A      3.284245  
     338A      3.339621   339A      3.360187   340A      3.371523  
     341A      3.435085   342A      3.456671   343A      3.478990  
     344A      3.504117   345A      3.517606   346A      3.533749  
     347A      3.565587   348A      3.608428   349A      3.623771  
     350A      3.644562   351A      3.662763   352A      3.676977  
     353A      3.695135   354A      3.724992   355A      3.751974  
     356A      3.780162   357A      3.801142   358A      3.812005  
     359A      3.830815   360A      3.861925   361A      3.878596  
     362A      3.898082   363A      3.918903   364A      3.936733  
     365A      3.962591   366A      3.983354   367A      3.989253  
     368A      3.999119   369A      4.020391   370A      4.049629  
     371A      4.067165   372A      4.095753   373A      4.121335  
     374A      4.125060   375A      4.134391   376A      4.144310  
     377A      4.163642   378A      4.170659   379A      4.197410  
     380A      4.207709   381A      4.215213   382A      4.235208  
     383A      4.250974   384A      4.264572   385A      4.292382  
     386A      4.299632   387A      4.321841   388A      4.327870  
     389A      4.347538   390A      4.372940   391A      4.388550  
     392A      4.394855   393A      4.436546   394A      4.452230  
     395A      4.461562   396A      4.470151   397A      4.480477  
     398A      4.510600   399A      4.538235   400A      4.552977  
     401A      4.585962   402A      4.593406   403A      4.598845  
     404A      4.613004   405A      4.618321   406A      4.638863  
     407A      4.643829   408A      4.668434   409A      4.676132  
     410A      4.690422   411A      4.692031   412A      4.715446  
     413A      4.742820   414A      4.758789   415A      4.767509  
     416A      4.787947   417A      4.809963   418A      4.833775  
     419A      4.859552   420A      4.874816   421A      4.884772  
     422A      4.900730   423A      4.901608   424A      4.920522  
     425A      4.937816   426A      4.944927   427A      4.957743  
     428A      4.977953   429A      5.012384   430A      5.016205  
     431A      5.020497   432A      5.038449   433A      5.045405  
     434A      5.068013   435A      5.089471   436A      5.125530  
     437A      5.146693   438A      5.159688   439A      5.178790  
     440A      5.196694   441A      5.218484   442A      5.228663  
     443A      5.264276   444A      5.271266   445A      5.285642  
     446A      5.297562   447A      5.336879   448A      5.360131  
     449A      5.371012   450A      5.386818   451A      5.404662  
     452A      5.408990   453A      5.427544   454A      5.437526  
     455A      5.489894   456A      5.495162   457A      5.500643  
     458A      5.509672   459A      5.548331   460A      5.558994  
     461A      5.575748   462A      5.600811   463A      5.616241  
     464A      5.619073   465A      5.649198   466A      5.657310  
     467A      5.678105   468A      5.690764   469A      5.722994  
     470A      5.736297   471A      5.747855   472A      5.766463  
     473A      5.782717   474A      5.807549   475A      5.832753  
     476A      5.872980   477A      5.882462   478A      5.964940  
     479A      5.993789   480A      6.033977   481A      6.049087  
     482A      6.079695   483A      6.131874   484A      6.139254  
     485A      6.149493   486A      6.192975   487A      6.220675  
     488A      6.229946   489A      6.248526   490A      6.266208  
     491A      6.303976   492A      6.364373   493A      6.433929  
     494A      6.471140   495A      6.533523   496A      6.702064  
     497A      6.726166   498A      6.756487   499A      6.829760  
     500A      6.836571   501A      6.906155   502A      6.931209  
     503A      6.956858   504A      6.983107   505A      7.006567  
     506A      7.022402   507A      7.102585   508A      7.133168  
     509A      7.199318   510A      7.348693   511A      7.367538  
     512A      7.388639   513A      7.468465   514A      7.534855  
     515A      7.649117   516A      7.782597   517A      7.801798  
     518A      7.846271   519A      7.852093   520A      7.869593  
     521A      7.906757   522A      7.934875   523A      7.945456  
     524A      8.023455   525A      8.138828   526A      8.162266  
     527A      8.245788   528A      8.270111   529A      8.289854  
     530A      8.370299   531A      8.400465   532A      8.594227  
     533A      8.605059   534A      8.877279   535A      9.094194  
     536A     10.064178   537A     10.100970   538A     10.239536  
     539A     10.412512   540A     10.675899   541A     10.761759  
     542A     11.073942   543A     12.037332   544A     12.490112  
     545A     13.330902   546A     14.138472   547A     16.233296  
     548A     17.887974   549A     18.745943   550A     53.054375  
     551A     54.657573   552A     66.925024  

    Final Occupation by Irrep:
              A 
    DOCC [    13 ]
    NA   [    13 ]
    NB   [    13 ]

  @DF-RHF Final Energy:  -154.14502084739141

   => Energetics <=

    Nuclear Repulsion Energy =             82.1406971158336887
    One-Electron Energy =                -372.1831554696186686
    Two-Electron Energy =                 135.8974375063935724
    Total Energy =                       -154.1450208473914074

Computation Completed


Properties will be evaluated at   0.000000,   0.000000,   0.000000 [a0]

Properties computed using the SCF density matrix


 Multipole Moments:

 ------------------------------------------------------------------------------------
     Multipole            Electronic (a.u.)      Nuclear  (a.u.)        Total (a.u.)
 ------------------------------------------------------------------------------------

 L = 1.  Multiply by 2.5417464519 to convert [e a0] to [Debye]
 Dipole X            :       -107.7156273          107.6185744           -0.0970530
 Dipole Y            :         -3.6765482            4.3138895            0.6373413
 Dipole Z            :          4.1282288           -3.8176190            0.3106098
 Magnitude           :                                                    0.7156127

 ------------------------------------------------------------------------------------

*** tstop() called on moses-razer at Sun Mar  2 06:57:47 2025
Module time:
	user time   =      95.16 seconds =       1.59 minutes
	system time =       1.42 seconds =       0.02 minutes
	total time  =         96 seconds =       1.60 minutes
Total time:
	user time   =     235.32 seconds =       3.92 minutes
	system time =       4.72 seconds =       0.08 minutes
	total time  =        240 seconds =       4.00 minutes

  //>>>>>>>>>>>>>>>>>>>>>>>>>>>>>>>>>>>//
  //            Monomer B HF           //
  //<<<<<<<<<<<<<<<<<<<<<<<<<<<<<<<<<<<//

   => Libint2 <=

    Primary   basis highest AM E, G, H:  5, 4, 3
    Auxiliary basis highest AM E, G, H:  6, 5, 4
    Onebody   basis highest AM E, G, H:  6, 5, 4
    Solid Harmonics ordering:            gaussian

*** tstart() called on moses-razer
*** at Sun Mar  2 06:57:47 2025

   => Loading Basis Set <=

    Name: AUG-CC-PVTZ
    Role: ORBITAL
    Keyword: BASIS
    atoms 1-2, 10-11 entry C          line   239 file /home/kchung25/anaconda3/envs/p415env/share/psi4/basis/aug-cc-pvtz.gbs 
    atoms 3, 12      entry O          line   331 file /home/kchung25/anaconda3/envs/p415env/share/psi4/basis/aug-cc-pvtz.gbs 
    atoms 4-9, 13-18 entry H          line    40 file /home/kchung25/anaconda3/envs/p415env/share/psi4/basis/aug-cc-pvtz.gbs 


         ---------------------------------------------------------
                                   SCF
               by Justin Turney, Rob Parrish, Andy Simmonett
                          and Daniel G. A. Smith
                              RHF Reference
                        1 Threads,   9536 MiB Core
         ---------------------------------------------------------

  ==> Geometry <==

    Molecular point group: c1
    Full point group: C1

    Geometry (in Angstrom), charge = 0, multiplicity = 1:

       Center              X                  Y                   Z               Mass       
    ------------   -----------------  -----------------  -----------------  -----------------
      Gh(C)           1.625795000000     1.155441000000    -0.267286000000    12.000000000000
      Gh(C)           1.876613000000    -0.235139000000     0.256824000000    12.000000000000
      Gh(O)           3.063286000000    -0.804528000000    -0.251867000000    15.994914619570
      Gh(H)           3.788701000000    -0.205797000000    -0.058033000000     1.007825032230
      Gh(H)           0.682970000000     1.544136000000     0.122725000000     1.007825032230
      Gh(H)           1.585213000000     1.153594000000    -1.359080000000     1.007825032230
      Gh(H)           2.425436000000     1.838207000000     0.037201000000     1.007825032230
      Gh(H)           1.066426000000    -0.905073000000    -0.041732000000     1.007825032230
      Gh(H)           1.879815000000    -0.227843000000     1.356430000000     1.007825032230
         C           -3.312830000000    -0.085440000000    -0.406548000000    12.000000000000
         C           -1.826379000000    -0.307294000000    -0.290228000000    12.000000000000
         O           -1.298452000000     0.193646000000     0.918383000000    15.994914619570
         H           -1.751106000000    -0.233912000000     1.649788000000     1.007825032230
         H           -3.690820000000    -0.443188000000    -1.366367000000     1.007825032230
         H           -3.550561000000     0.975888000000    -0.314150000000     1.007825032230
         H           -3.850088000000    -0.622055000000     0.381097000000     1.007825032230
         H           -1.296004000000     0.221932000000    -1.087215000000     1.007825032230
         H           -1.587842000000    -1.374235000000    -0.409365000000     1.007825032230

  Running in c1 symmetry.

  Rotational constants: A =      0.24282  B =      0.03189  C =      0.03120 [cm^-1]
  Rotational constants: A =   7279.45817  B =    956.02014  C =    935.40360 [MHz]
  Nuclear repulsion =   82.136769403430634

  Charge       = 0
  Multiplicity = 1
  Electrons    = 26
  Nalpha       = 13
  Nbeta        = 13

  ==> Algorithm <==

  SCF Algorithm Type is DF.
  DIIS enabled.
  MOM disabled.
  Fractional occupation disabled.
  Guess Type is SAD.
  Energy threshold   = 1.00e-08
  Density threshold  = 1.00e-08
  Integral threshold = 1.00e-12

  ==> Primary Basis <==

  Basis Set: AUG-CC-PVTZ
    Blend: AUG-CC-PVTZ
    Number of shells: 192
    Number of basis functions: 552
    Number of Cartesian functions: 630
    Spherical Harmonics?: true
    Max angular momentum: 3

   => Loading Basis Set <=

    Name: (AUG-CC-PVTZ AUX)
    Role: JKFIT
    Keyword: DF_BASIS_SCF
    atoms 1-2, 10-11 entry C          line   162 file /home/kchung25/anaconda3/envs/p415env/share/psi4/basis/aug-cc-pvtz-jkfit.gbs 
    atoms 3, 12      entry O          line   286 file /home/kchung25/anaconda3/envs/p415env/share/psi4/basis/aug-cc-pvtz-jkfit.gbs 
    atoms 4-9, 13-18 entry H          line    70 file /home/kchung25/anaconda3/envs/p415env/share/psi4/basis/aug-cc-pvtz-jkfit.gbs 

  ==> Integral Setup <==

  ==> DiskDFJK: Density-Fitted J/K Matrices <==

    J tasked:                  Yes
    K tasked:                  Yes
    wK tasked:                  No
    OpenMP threads:              1
    Integrals threads:           1
    Memory [MiB]:             7152
    Algorithm:                Core
    Integral Cache:           LOAD
    Schwarz Cutoff:          1E-12
    Fitting Condition:       1E-10

   => Auxiliary Basis Set <=

  Basis Set: (AUG-CC-PVTZ AUX)
    Blend: AUG-CC-PVTZ-JKFIT
    Number of shells: 348
    Number of basis functions: 1176
    Number of Cartesian functions: 1446
    Spherical Harmonics?: true
    Max angular momentum: 4

  Minimum eigenvalue in the overlap matrix is 9.6314947137E-06.
  Reciprocal condition number of the overlap matrix is 5.3862220441E-07.
    Using symmetric orthogonalization.

  ==> Pre-Iterations <==

  SCF Guess: Superposition of Atomic Densities via on-the-fly atomic UHF (no occupation information).

   -------------------------
    Irrep   Nso     Nmo    
   -------------------------
     A        552     552 
   -------------------------
    Total     552     552
   -------------------------

  ==> Iterations <==

                           Total Energy        Delta E     RMS |[F,P]|

   @DF-RHF iter SAD:  -153.45459855840880   -1.53455e+02   0.00000e+00 
   @DF-RHF iter   1:  -154.00356848859994   -5.48970e-01   9.37934e-04 ADIIS/DIIS
   @DF-RHF iter   2:  -154.11541678703918   -1.11848e-01   4.95735e-04 ADIIS/DIIS
   @DF-RHF iter   3:  -154.14341189247713   -2.79951e-02   8.38377e-05 DIIS
   @DF-RHF iter   4:  -154.14498868907427   -1.57680e-03   3.20974e-05 DIIS
   @DF-RHF iter   5:  -154.14517472611459   -1.86037e-04   6.20799e-06 DIIS
   @DF-RHF iter   6:  -154.14518500195877   -1.02758e-05   1.42340e-06 DIIS
   @DF-RHF iter   7:  -154.14518573411411   -7.32155e-07   4.05855e-07 DIIS
   @DF-RHF iter   8:  -154.14518578901038   -5.48963e-08   1.28272e-07 DIIS
   @DF-RHF iter   9:  -154.14518579518466   -6.17428e-09   3.28929e-08 DIIS
   @DF-RHF iter  10:  -154.14518579561803   -4.33374e-10   6.32503e-09 DIIS
  Energy and wave function converged.


  ==> Post-Iterations <==

    Orbital Energies [Eh]
    ---------------------

    Doubly Occupied:                                                      

       1A    -20.555306     2A    -11.273541     3A    -11.218122  
       4A     -1.361683     5A     -1.014549     6A     -0.848399  
       7A     -0.687389     8A     -0.625792     9A     -0.611357  
      10A     -0.544377    11A     -0.526229    12A     -0.480706  
      13A     -0.443066  

    Virtual:                                                              

      14A      0.025280    15A      0.032287    16A      0.036646  
      17A      0.038865    18A      0.050662    19A      0.052124  
      20A      0.052963    21A      0.061443    22A      0.073326  
      23A      0.077409    24A      0.080604    25A      0.085317  
      26A      0.099586    27A      0.101189    28A      0.113838  
      29A      0.120474    30A      0.128232    31A      0.129562  
      32A      0.133786    33A      0.137750    34A      0.146207  
      35A      0.147007    36A      0.152081    37A      0.154613  
      38A      0.164734    39A      0.170760    40A      0.182133  
      41A      0.188749    42A      0.197159    43A      0.207504  
      44A      0.215997    45A      0.224252    46A      0.232187  
      47A      0.235613    48A      0.240219    49A      0.254256  
      50A      0.258603    51A      0.266455    52A      0.273284  
      53A      0.275536    54A      0.277276    55A      0.288715  
      56A      0.291583    57A      0.305795    58A      0.309923  
      59A      0.317207    60A      0.323363    61A      0.326438  
      62A      0.331244    63A      0.339632    64A      0.352742  
      65A      0.356500    66A      0.358502    67A      0.361625  
      68A      0.365498    69A      0.372093    70A      0.374026  
      71A      0.382188    72A      0.384214    73A      0.389467  
      74A      0.397037    75A      0.401676    76A      0.406355  
      77A      0.415043    78A      0.421595    79A      0.428151  
      80A      0.431343    81A      0.441748    82A      0.442977  
      83A      0.445594    84A      0.449995    85A      0.454959  
      86A      0.466390    87A      0.469645    88A      0.470080  
      89A      0.477445    90A      0.484585    91A      0.494589  
      92A      0.496644    93A      0.499981    94A      0.506657  
      95A      0.512131    96A      0.518165    97A      0.523458  
      98A      0.536509    99A      0.540436   100A      0.547710  
     101A      0.550973   102A      0.559698   103A      0.564368  
     104A      0.568372   105A      0.578082   106A      0.587542  
     107A      0.593969   108A      0.600956   109A      0.605269  
     110A      0.614239   111A      0.621931   112A      0.629325  
     113A      0.640808   114A      0.644123   115A      0.655867  
     116A      0.659939   117A      0.669000   118A      0.686109  
     119A      0.689700   120A      0.692817   121A      0.707638  
     122A      0.710049   123A      0.722281   124A      0.743375  
     125A      0.749351   126A      0.774836   127A      0.783122  
     128A      0.795470   129A      0.802240   130A      0.819163  
     131A      0.825089   132A      0.835567   133A      0.840572  
     134A      0.844587   135A      0.848911   136A      0.864972  
     137A      0.871571   138A      0.879764   139A      0.886279  
     140A      0.892737   141A      0.895973   142A      0.907531  
     143A      0.914036   144A      0.923283   145A      0.931957  
     146A      0.942035   147A      0.952323   148A      0.954592  
     149A      0.970635   150A      0.975457   151A      0.981726  
     152A      0.984598   153A      0.992004   154A      0.998310  
     155A      1.002466   156A      1.005354   157A      1.021930  
     158A      1.027787   159A      1.032191   160A      1.040018  
     161A      1.054914   162A      1.061879   163A      1.062059  
     164A      1.067997   165A      1.075182   166A      1.081744  
     167A      1.089450   168A      1.098670   169A      1.103263  
     170A      1.110971   171A      1.112518   172A      1.127325  
     173A      1.131458   174A      1.141985   175A      1.143758  
     176A      1.148590   177A      1.157336   178A      1.161397  
     179A      1.172596   180A      1.179858   181A      1.191964  
     182A      1.196545   183A      1.210588   184A      1.213534  
     185A      1.215422   186A      1.220287   187A      1.224237  
     188A      1.239338   189A      1.244162   190A      1.251590  
     191A      1.251746   192A      1.262586   193A      1.268269  
     194A      1.274333   195A      1.282483   196A      1.289718  
     197A      1.295038   198A      1.307837   199A      1.314083  
     200A      1.322883   201A      1.337008   202A      1.352096  
     203A      1.354804   204A      1.363060   205A      1.366981  
     206A      1.371087   207A      1.383826   208A      1.395932  
     209A      1.411502   210A      1.423706   211A      1.429034  
     212A      1.452935   213A      1.455493   214A      1.461220  
     215A      1.476763   216A      1.479582   217A      1.484975  
     218A      1.500040   219A      1.504242   220A      1.517337  
     221A      1.533760   222A      1.540153   223A      1.545117  
     224A      1.555661   225A      1.566282   226A      1.580203  
     227A      1.598128   228A      1.603567   229A      1.613777  
     230A      1.629988   231A      1.644960   232A      1.647727  
     233A      1.660617   234A      1.665376   235A      1.671049  
     236A      1.681274   237A      1.691787   238A      1.694258  
     239A      1.710097   240A      1.715995   241A      1.730959  
     242A      1.734474   243A      1.751672   244A      1.755848  
     245A      1.767837   246A      1.778040   247A      1.793929  
     248A      1.801956   249A      1.818495   250A      1.825884  
     251A      1.836927   252A      1.848065   253A      1.867488  
     254A      1.875912   255A      1.893523   256A      1.895216  
     257A      1.906739   258A      1.918744   259A      1.933433  
     260A      1.942977   261A      1.954053   262A      1.963410  
     263A      1.966566   264A      1.992415   265A      2.000073  
     266A      2.014413   267A      2.030466   268A      2.041034  
     269A      2.044250   270A      2.050001   271A      2.059030  
     272A      2.071907   273A      2.079967   274A      2.092613  
     275A      2.114020   276A      2.119846   277A      2.147224  
     278A      2.154908   279A      2.159193   280A      2.183263  
     281A      2.191144   282A      2.201473   283A      2.217178  
     284A      2.230529   285A      2.244236   286A      2.248165  
     287A      2.255069   288A      2.269375   289A      2.271529  
     290A      2.292230   291A      2.310307   292A      2.330940  
     293A      2.339934   294A      2.353670   295A      2.370047  
     296A      2.397182   297A      2.402745   298A      2.437831  
     299A      2.459260   300A      2.488993   301A      2.491426  
     302A      2.499212   303A      2.521511   304A      2.553447  
     305A      2.576382   306A      2.600256   307A      2.631293  
     308A      2.660012   309A      2.687346   310A      2.691921  
     311A      2.703280   312A      2.718774   313A      2.734892  
     314A      2.760308   315A      2.780117   316A      2.794749  
     317A      2.808059   318A      2.816693   319A      2.844359  
     320A      2.863935   321A      2.883010   322A      2.889345  
     323A      2.903724   324A      2.937591   325A      2.973920  
     326A      3.014726   327A      3.017733   328A      3.027347  
     329A      3.051934   330A      3.100067   331A      3.105482  
     332A      3.128437   333A      3.157631   334A      3.228968  
     335A      3.244569   336A      3.266657   337A      3.288802  
     338A      3.320501   339A      3.341671   340A      3.353374  
     341A      3.403638   342A      3.434663   343A      3.470320  
     344A      3.484584   345A      3.496517   346A      3.547572  
     347A      3.566383   348A      3.609141   349A      3.635663  
     350A      3.646526   351A      3.664241   352A      3.685869  
     353A      3.701852   354A      3.712582   355A      3.738411  
     356A      3.768590   357A      3.785814   358A      3.790610  
     359A      3.812330   360A      3.844843   361A      3.857969  
     362A      3.897130   363A      3.909997   364A      3.946069  
     365A      3.961511   366A      3.965065   367A      3.980191  
     368A      3.993915   369A      4.049532   370A      4.066981  
     371A      4.087852   372A      4.096779   373A      4.103124  
     374A      4.137193   375A      4.144404   376A      4.152564  
     377A      4.174513   378A      4.192496   379A      4.194228  
     380A      4.212123   381A      4.219727   382A      4.243999  
     383A      4.253511   384A      4.261422   385A      4.287393  
     386A      4.293046   387A      4.324848   388A      4.346360  
     389A      4.368556   390A      4.383123   391A      4.395095  
     392A      4.418752   393A      4.457577   394A      4.467030  
     395A      4.474526   396A      4.500327   397A      4.527149  
     398A      4.563118   399A      4.567981   400A      4.583301  
     401A      4.586169   402A      4.592775   403A      4.598487  
     404A      4.613964   405A      4.624470   406A      4.639488  
     407A      4.653581   408A      4.673116   409A      4.684243  
     410A      4.697700   411A      4.711558   412A      4.737357  
     413A      4.760384   414A      4.772762   415A      4.803714  
     416A      4.817242   417A      4.827274   418A      4.847394  
     419A      4.850565   420A      4.868171   421A      4.879180  
     422A      4.881158   423A      4.906127   424A      4.933444  
     425A      4.944236   426A      4.969687   427A      4.976462  
     428A      4.994118   429A      5.007956   430A      5.024153  
     431A      5.028786   432A      5.043938   433A      5.066410  
     434A      5.085630   435A      5.103503   436A      5.117020  
     437A      5.154712   438A      5.168421   439A      5.174551  
     440A      5.197964   441A      5.225896   442A      5.245336  
     443A      5.261110   444A      5.270310   445A      5.293273  
     446A      5.321204   447A      5.352785   448A      5.360593  
     449A      5.374824   450A      5.380239   451A      5.390382  
     452A      5.417430   453A      5.434604   454A      5.478237  
     455A      5.488423   456A      5.503668   457A      5.525902  
     458A      5.541171   459A      5.548868   460A      5.570199  
     461A      5.584023   462A      5.591496   463A      5.607946  
     464A      5.633808   465A      5.642515   466A      5.664722  
     467A      5.689311   468A      5.697439   469A      5.724026  
     470A      5.729435   471A      5.763527   472A      5.787115  
     473A      5.794691   474A      5.832212   475A      5.856359  
     476A      5.865800   477A      5.905213   478A      5.962228  
     479A      6.012068   480A      6.041557   481A      6.075848  
     482A      6.078674   483A      6.100661   484A      6.146134  
     485A      6.168944   486A      6.186750   487A      6.237924  
     488A      6.250280   489A      6.293799   490A      6.312056  
     491A      6.341682   492A      6.406296   493A      6.411432  
     494A      6.479778   495A      6.505217   496A      6.724767  
     497A      6.736641   498A      6.776873   499A      6.786389  
     500A      6.851237   501A      6.864129   502A      6.966403  
     503A      7.006215   504A      7.031738   505A      7.043814  
     506A      7.112395   507A      7.137123   508A      7.180557  
     509A      7.201224   510A      7.364974   511A      7.376393  
     512A      7.422366   513A      7.506061   514A      7.549951  
     515A      7.724196   516A      7.784063   517A      7.837862  
     518A      7.858289   519A      7.864424   520A      7.876234  
     521A      7.892813   522A      7.932864   523A      8.002284  
     524A      8.038396   525A      8.111933   526A      8.186432  
     527A      8.276528   528A      8.306161   529A      8.314111  
     530A      8.370718   531A      8.425965   532A      8.592559  
     533A      8.678305   534A      8.901377   535A      8.994678  
     536A      9.989345   537A     10.050018   538A     10.254596  
     539A     10.393590   540A     10.678847   541A     10.751066  
     542A     11.071609   543A     12.007934   544A     12.312905  
     545A     13.300199   546A     14.108383   547A     16.396623  
     548A     17.869141   549A     18.834252   550A     53.093612  
     551A     54.707501   552A     66.362786  

    Final Occupation by Irrep:
              A 
    DOCC [    13 ]
    NA   [    13 ]
    NB   [    13 ]

  @DF-RHF Final Energy:  -154.14518579561803

   => Energetics <=

    Nuclear Repulsion Energy =             82.1367694034306339
    One-Electron Energy =                -372.1828761695771846
    Two-Electron Energy =                 135.9009209705284889
    Total Energy =                       -154.1451857956180334

Computation Completed


Properties will be evaluated at   0.000000,   0.000000,   0.000000 [a0]

Properties computed using the SCF density matrix


 Multipole Moments:

 ------------------------------------------------------------------------------------
     Multipole            Electronic (a.u.)      Nuclear  (a.u.)        Total (a.u.)
 ------------------------------------------------------------------------------------

 L = 1.  Multiply by 2.5417464519 to convert [e a0] to [Debye]
 Dipole X            :        107.0807927         -107.6185630           -0.5377703
 Dipole Y            :          3.8597785           -4.3138781           -0.4540997
 Dipole Z            :         -3.9127094            3.8176172           -0.0950922
 Magnitude           :                                                    0.7102436

 ------------------------------------------------------------------------------------

*** tstop() called on moses-razer at Sun Mar  2 06:59:24 2025
Module time:
	user time   =      95.45 seconds =       1.59 minutes
	system time =       1.44 seconds =       0.02 minutes
	total time  =         97 seconds =       1.62 minutes
Total time:
	user time   =     330.78 seconds =       5.51 minutes
	system time =       6.16 seconds =       0.10 minutes
	total time  =        337 seconds =       5.62 minutes
  Constructing Basis Sets for SAPT...

   => Loading Basis Set <=

    Name: (AUG-CC-PVTZ AUX)
    Role: RIFIT
    Keyword: DF_BASIS_SAPT
    atoms 1-2, 10-11 entry C          line   148 file /home/kchung25/anaconda3/envs/p415env/share/psi4/basis/aug-cc-pvtz-ri.gbs 
    atoms 3, 12      entry O          line   264 file /home/kchung25/anaconda3/envs/p415env/share/psi4/basis/aug-cc-pvtz-ri.gbs 
    atoms 4-9, 13-18 entry H          line    30 file /home/kchung25/anaconda3/envs/p415env/share/psi4/basis/aug-cc-pvtz-ri.gbs 

   => Loading Basis Set <=

    Name: (AUG-CC-PVTZ AUX)
    Role: JKFIT
    Keyword: DF_BASIS_ELST
    atoms 1-2, 10-11 entry C          line   162 file /home/kchung25/anaconda3/envs/p415env/share/psi4/basis/aug-cc-pvtz-jkfit.gbs 
    atoms 3, 12      entry O          line   286 file /home/kchung25/anaconda3/envs/p415env/share/psi4/basis/aug-cc-pvtz-jkfit.gbs 
    atoms 4-9, 13-18 entry H          line    70 file /home/kchung25/anaconda3/envs/p415env/share/psi4/basis/aug-cc-pvtz-jkfit.gbs 


  //>>>>>>>>>>>>>>>>>>>>>>>>>>>>>>>>>>>//
  //               SAPT2+              //
  //<<<<<<<<<<<<<<<<<<<<<<<<<<<<<<<<<<<//


*** tstart() called on moses-razer
*** at Sun Mar  2 06:59:25 2025

        SAPT2+  
    Ed Hohenstein
     6 June 2009

      Orbital Information
  --------------------------
    NSO        =       552
    NMO        =       552
    NRI        =      1188
    NOCC A     =        13
    NOCC B     =        13
    FOCC A     =         0
    FOCC B     =         0
    NVIR A     =       539
    NVIR B     =       539

    Estimated memory usage: 3939.5 MB

    Natural Orbital Cutoff:   1.000E-06
    Disp(T3) Truncation:            Yes
    CCD (vv|vv) Truncation:         Yes
    MBPT T2 Truncation:             Yes

    Monomer A: 308 virtual orbitals dropped
    Monomer B: 306 virtual orbitals dropped

    Elst10,r            =    -0.003281089753 [Eh]
    Exch10 (S^2)        =     0.005130672554 [Eh]
    Exch10              =     0.005142576137 [Eh]
    Ind20,r (A<-B)      =    -0.001079876655 [Eh]
    Ind20,r (B<-A)      =    -0.000477596027 [Eh]
    Ind20,r             =    -0.001557472682 [Eh]
    Exch-Ind20,r (A<-B) =     0.000675008414 [Eh]
    Exch-Ind20,r (B<-A) =     0.000389665581 [Eh]
    Exch-Ind20,r        =     0.001064673995 [Eh]
    Disp20              =    -0.005428519643 [Eh]
    Disp20 (NO)         =    -0.004860207716 [Eh]
    Exch-Disp20         =     0.000569491946 [Eh]
    Elst12,r            =    -0.000265065228 [Eh]
    Exch11              =     0.000016424199 [Eh]
    Exch12              =     0.000779550253 [Eh]
    Ind22               =    -0.000201972428 [Eh]
    Disp21              =     0.000285205159 [Eh]
    Disp22 (SDQ)        =     0.000110815069 [Eh]

    (i =   1 of  13)        242 seconds
    (i =   2 of  13)        477 seconds
    (i =   3 of  13)        712 seconds
    (i =   4 of  13)        941 seconds
    (i =   5 of  13)       1177 seconds
    (i =   6 of  13)       1413 seconds
    (i =   7 of  13)       1648 seconds
    (i =   8 of  13)       1882 seconds
    (i =   9 of  13)       2117 seconds
    (i =  10 of  13)       2354 seconds
    (i =  11 of  13)       2592 seconds
    (i =  12 of  13)       2831 seconds
    (i =  13 of  13)       3068 seconds

    Disp220 (T)         =    -0.000341838237 [Eh]

    (i =   1 of  13)        231 seconds
    (i =   2 of  13)        461 seconds
    (i =   3 of  13)        694 seconds
    (i =   4 of  13)        930 seconds
    (i =   5 of  13)       1168 seconds
    (i =   6 of  13)       1405 seconds
    (i =   7 of  13)       1640 seconds
    (i =   8 of  13)       1874 seconds
    (i =   9 of  13)       2110 seconds
    (i =  10 of  13)       2345 seconds
    (i =  11 of  13)       2580 seconds
    (i =  12 of  13)       2815 seconds
    (i =  13 of  13)       3050 seconds

    Disp202 (T)         =    -0.000430989402 [Eh]

    Disp22 (T)          =    -0.000772827639 [Eh]

    Est. Disp220 (T)    =    -0.000381809933 [Eh]
    Est. Disp202 (T)    =    -0.000481385688 [Eh]

    Est. Disp22 (T)     =    -0.000863195622 [Eh]

    SAPT Results 
  --------------------------------------------------------------------------------------------------------
    Electrostatics                 -3.54615498 [mEh]      -2.22524585 [kcal/mol]      -9.31042862 [kJ/mol]
      Elst10,r                     -3.28108975 [mEh]      -2.05891490 [kcal/mol]      -8.61449996 [kJ/mol]
      Elst12,r                     -0.26506523 [mEh]      -0.16633094 [kcal/mol]      -0.69592866 [kJ/mol]

    Exchange                        5.93855059 [mEh]       3.72649676 [kcal/mol]      15.59166243 [kJ/mol]
      Exch10                        5.14257614 [mEh]       3.22701525 [kcal/mol]      13.50183179 [kJ/mol]
      Exch10(S^2)                   5.13067255 [mEh]       3.21954563 [kcal/mol]      13.47057894 [kJ/mol]
      Exch11(S^2)                   0.01642420 [mEh]       0.01030634 [kcal/mol]       0.04312173 [kJ/mol]
      Exch12(S^2)                   0.77955025 [mEh]       0.48917517 [kcal/mol]       2.04670891 [kJ/mol]

    Induction                      -0.91962843 [mEh]      -0.57707555 [kcal/mol]      -2.41448411 [kJ/mol]
      Ind20,r                      -1.55747268 [mEh]      -0.97732886 [kcal/mol]      -4.08914396 [kJ/mol]
      Ind22                        -0.20197243 [mEh]      -0.12673961 [kcal/mol]      -0.53027854 [kJ/mol]
      Exch-Ind20,r                  1.06467400 [mEh]       0.66809302 [kcal/mol]       2.79530119 [kJ/mol]
      Exch-Ind22                    0.13806649 [mEh]       0.08663803 [kcal/mol]       0.36249353 [kJ/mol]
      delta HF,r (2)               -0.36292381 [mEh]      -0.22773813 [kcal/mol]      -0.95285633 [kJ/mol]

    Dispersion                     -5.32620309 [mEh]      -3.34224290 [kcal/mol]     -13.98394429 [kJ/mol]
      Disp20                       -5.42851964 [mEh]      -3.40644750 [kcal/mol]     -14.25257636 [kJ/mol]
      Disp21                        0.28520516 [mEh]       0.17896894 [kcal/mol]       0.74880604 [kJ/mol]
      Disp22 (SDQ)                  0.11081507 [mEh]       0.06953751 [kcal/mol]       0.29094492 [kJ/mol]
      Disp22 (T)                   -0.77282764 [mEh]      -0.48495667 [kcal/mol]      -2.02905869 [kJ/mol]
      Est. Disp22 (T)              -0.86319562 [mEh]      -0.54166343 [kcal/mol]      -2.26631979 [kJ/mol]
      Exch-Disp20                   0.56949195 [mEh]       0.35736159 [kcal/mol]       1.49520090 [kJ/mol]

  Total HF                          1.00576389 [mEh]       0.63112637 [kcal/mol]       2.64063272 [kJ/mol]
  Total SAPT0                      -3.85326381 [mEh]      -2.41795955 [kcal/mol]     -10.11674274 [kJ/mol]
  Total SAPT2                      -3.38626052 [mEh]      -2.12491056 [kcal/mol]      -8.89062577 [kJ/mol]
  Total SAPT2+                     -3.85343591 [mEh]      -2.41806754 [kcal/mol]     -10.11719460 [kJ/mol]

  Special recipe for scaled SAPT0 (see Manual):
    Electrostatics sSAPT0          -3.28108975 [mEh]      -2.05891490 [kcal/mol]      -8.61449996 [kJ/mol]
    Exchange sSAPT0                 5.14257614 [mEh]       3.22701525 [kcal/mol]      13.50183179 [kJ/mol]
    Induction sSAPT0               -0.84829490 [mEh]      -0.53231308 [kcal/mol]      -2.22719794 [kJ/mol]
    Dispersion sSAPT0              -4.85505469 [mEh]      -3.04659281 [kcal/mol]     -12.74694433 [kJ/mol]
  Total sSAPT0                     -3.84186320 [mEh]      -2.41080556 [kcal/mol]     -10.08681045 [kJ/mol]
  --------------------------------------------------------------------------------------------------------

*** tstop() called on moses-razer at Sun Mar  2 09:15:42 2025
Module time:
	user time   =    8029.82 seconds =     133.83 minutes
	system time =     130.38 seconds =       2.17 minutes
	total time  =       8177 seconds =     136.28 minutes
Total time:
	user time   =    8360.80 seconds =     139.35 minutes
	system time =     136.55 seconds =       2.28 minutes
	total time  =       8515 seconds =     141.92 minutes

    Psi4 stopped on: Sunday, 02 March 2025 09:15AM
    Psi4 wall time for execution: 2:21:55.24

*** Psi4 exiting successfully. Buy a developer a beer!
