
    -----------------------------------------------------------------------
          Psi4: An Open-Source Ab Initio Electronic Structure Package
                               Psi4 1.9 release

                         Git: Rev {} zzzzzzz 


    D. G. A. Smith, L. A. Burns, A. C. Simmonett, R. M. Parrish,
    M. C. Schieber, R. Galvelis, P. Kraus, H. Kruse, R. Di Remigio,
    A. Alenaizan, A. M. James, S. Lehtola, J. P. Misiewicz, M. Scheurer,
    R. A. Shaw, J. B. Schriber, Y. Xie, Z. L. Glick, D. A. Sirianni,
    J. S. O'Brien, J. M. Waldrop, A. Kumar, E. G. Hohenstein,
    B. P. Pritchard, B. R. Brooks, H. F. Schaefer III, A. Yu. Sokolov,
    K. Patkowski, A. E. DePrince III, U. Bozkaya, R. A. King,
    F. A. Evangelista, J. M. Turney, T. D. Crawford, C. D. Sherrill,
    J. Chem. Phys. 152(18) 184108 (2020). https://doi.org/10.1063/5.0006002

                            Additional Code Authors
    E. T. Seidl, C. L. Janssen, E. F. Valeev, M. L. Leininger,
    J. F. Gonthier, R. M. Richard, H. R. McAlexander, M. Saitow, X. Wang,
    P. Verma, M. H. Lechner, A. Jiang, S. Behnle, A. G. Heide,
    M. F. Herbst, and D. L. Poole

             Previous Authors, Complete List of Code Contributors,
                       and Citations for Specific Modules
    https://github.com/psi4/psi4/blob/master/codemeta.json
    https://github.com/psi4/psi4/graphs/contributors
    http://psicode.org/psi4manual/master/introduction.html#citing-psifour

    -----------------------------------------------------------------------


    Psi4 started on: Saturday, 01 March 2025 09:15AM

    Process ID: 186902
    Host:       moses-razer
    PSIDATADIR: /home/kchung25/anaconda3/envs/psi4_19/share/psi4
    Memory:     500.0 MiB
    Threads:    1
    
  ==> Input File <==

--------------------------------------------------------------------------
MEMORY 10 GB

molecule dimer {
0 1
C   -2.487597   0.608687  -0.583554
C   -1.837698  -0.656164  -0.076304
O   -1.085446  -0.443379   1.089982
H   -0.371751   0.172884   0.864426
H   -3.099850   0.414336  -1.467330
H   -1.727073   1.345474  -0.856583
H   -3.123218   1.046984   0.188632
H   -1.216734  -1.099176  -0.871686
H   -2.598797  -1.401041   0.175005
--
0 1
C    1.918981  -1.043395  -0.470114
C    2.292208   0.315008   0.050278
O    1.116813   1.110588   0.084284
H    1.332036   1.988261   0.406597
H    2.794996  -1.691769  -0.514538
H    1.498225  -0.964042  -1.474590
H    1.173296  -1.510155   0.177450
H    3.044584   0.782449  -0.598000
H    2.727986   0.233302   1.054655

units ang
no_reorient
no_com
symmetry c1
}

set {
basis        aug-cc-pVTZ
scf_type     df
}

energy("sapt2+")
--------------------------------------------------------------------------

  Memory set to   9.313 GiB by Python driver.

Scratch directory: /scratch/
   => Loading Basis Set <=

    Name: AUG-CC-PVTZ
    Role: ORBITAL
    Keyword: BASIS
    atoms 1-2, 10-11 entry C          line   239 file /home/kchung25/anaconda3/envs/p415env/share/psi4/basis/aug-cc-pvtz.gbs 
    atoms 3, 12      entry O          line   331 file /home/kchung25/anaconda3/envs/p415env/share/psi4/basis/aug-cc-pvtz.gbs 
    atoms 4-9, 13-18 entry H          line    40 file /home/kchung25/anaconda3/envs/p415env/share/psi4/basis/aug-cc-pvtz.gbs 

   => Loading Basis Set <=

    Name: AUG-CC-PVTZ
    Role: ORBITAL
    Keyword: BASIS
    atoms 1-2, 10-11 entry C          line   239 file /home/kchung25/anaconda3/envs/p415env/share/psi4/basis/aug-cc-pvtz.gbs 
    atoms 3, 12      entry O          line   331 file /home/kchung25/anaconda3/envs/p415env/share/psi4/basis/aug-cc-pvtz.gbs 
    atoms 4-9, 13-18 entry H          line    40 file /home/kchung25/anaconda3/envs/p415env/share/psi4/basis/aug-cc-pvtz.gbs 


  //>>>>>>>>>>>>>>>>>>>>>>>>>>>>>>>>>>>//
  //              Dimer HF             //
  //<<<<<<<<<<<<<<<<<<<<<<<<<<<<<<<<<<<//

   => Libint2 <=

    Primary   basis highest AM E, G, H:  5, 4, 3
    Auxiliary basis highest AM E, G, H:  6, 5, 4
    Onebody   basis highest AM E, G, H:  6, 5, 4
    Solid Harmonics ordering:            gaussian

*** tstart() called on moses-razer
*** at Sat Mar  1 09:15:39 2025

   => Loading Basis Set <=

    Name: AUG-CC-PVTZ
    Role: ORBITAL
    Keyword: BASIS
    atoms 1-2, 10-11 entry C          line   239 file /home/kchung25/anaconda3/envs/p415env/share/psi4/basis/aug-cc-pvtz.gbs 
    atoms 3, 12      entry O          line   331 file /home/kchung25/anaconda3/envs/p415env/share/psi4/basis/aug-cc-pvtz.gbs 
    atoms 4-9, 13-18 entry H          line    40 file /home/kchung25/anaconda3/envs/p415env/share/psi4/basis/aug-cc-pvtz.gbs 


         ---------------------------------------------------------
                                   SCF
               by Justin Turney, Rob Parrish, Andy Simmonett
                          and Daniel G. A. Smith
                              RHF Reference
                        1 Threads,   9536 MiB Core
         ---------------------------------------------------------

  ==> Geometry <==

    Molecular point group: c1
    Full point group: C1

    Geometry (in Angstrom), charge = 0, multiplicity = 1:

       Center              X                  Y                   Z               Mass       
    ------------   -----------------  -----------------  -----------------  -----------------
         C           -2.487597000000     0.608687000000    -0.583554000000    12.000000000000
         C           -1.837698000000    -0.656164000000    -0.076304000000    12.000000000000
         O           -1.085446000000    -0.443379000000     1.089982000000    15.994914619570
         H           -0.371751000000     0.172884000000     0.864426000000     1.007825032230
         H           -3.099850000000     0.414336000000    -1.467330000000     1.007825032230
         H           -1.727073000000     1.345474000000    -0.856583000000     1.007825032230
         H           -3.123218000000     1.046984000000     0.188632000000     1.007825032230
         H           -1.216734000000    -1.099176000000    -0.871686000000     1.007825032230
         H           -2.598797000000    -1.401041000000     0.175005000000     1.007825032230
         C            1.918981000000    -1.043395000000    -0.470114000000    12.000000000000
         C            2.292208000000     0.315008000000     0.050278000000    12.000000000000
         O            1.116813000000     1.110588000000     0.084284000000    15.994914619570
         H            1.332036000000     1.988261000000     0.406597000000     1.007825032230
         H            2.794996000000    -1.691769000000    -0.514538000000     1.007825032230
         H            1.498225000000    -0.964042000000    -1.474590000000     1.007825032230
         H            1.173296000000    -1.510155000000     0.177450000000     1.007825032230
         H            3.044584000000     0.782449000000    -0.598000000000     1.007825032230
         H            2.727986000000     0.233302000000     1.054655000000     1.007825032230

  Running in c1 symmetry.

  Rotational constants: A =      0.17147  B =      0.04729  C =      0.04368 [cm^-1]
  Rotational constants: A =   5140.58970  B =   1417.71819  C =   1309.47120 [MHz]
  Nuclear repulsion =  258.997409268799231

  Charge       = 0
  Multiplicity = 1
  Electrons    = 52
  Nalpha       = 26
  Nbeta        = 26

  ==> Algorithm <==

  SCF Algorithm Type is DF.
  DIIS enabled.
  MOM disabled.
  Fractional occupation disabled.
  Guess Type is SAD.
  Energy threshold   = 1.00e-08
  Density threshold  = 1.00e-08
  Integral threshold = 1.00e-12

  ==> Primary Basis <==

  Basis Set: AUG-CC-PVTZ
    Blend: AUG-CC-PVTZ
    Number of shells: 192
    Number of basis functions: 552
    Number of Cartesian functions: 630
    Spherical Harmonics?: true
    Max angular momentum: 3

   => Loading Basis Set <=

    Name: (AUG-CC-PVTZ AUX)
    Role: JKFIT
    Keyword: DF_BASIS_SCF
    atoms 1-2, 10-11 entry C          line   162 file /home/kchung25/anaconda3/envs/p415env/share/psi4/basis/aug-cc-pvtz-jkfit.gbs 
    atoms 3, 12      entry O          line   286 file /home/kchung25/anaconda3/envs/p415env/share/psi4/basis/aug-cc-pvtz-jkfit.gbs 
    atoms 4-9, 13-18 entry H          line    70 file /home/kchung25/anaconda3/envs/p415env/share/psi4/basis/aug-cc-pvtz-jkfit.gbs 

  ==> Integral Setup <==

  ==> DiskDFJK: Density-Fitted J/K Matrices <==

    J tasked:                  Yes
    K tasked:                  Yes
    wK tasked:                  No
    OpenMP threads:              1
    Integrals threads:           1
    Memory [MiB]:             7152
    Algorithm:                Core
    Integral Cache:           SAVE
    Schwarz Cutoff:          1E-12
    Fitting Condition:       1E-10

   => Auxiliary Basis Set <=

  Basis Set: (AUG-CC-PVTZ AUX)
    Blend: AUG-CC-PVTZ-JKFIT
    Number of shells: 348
    Number of basis functions: 1176
    Number of Cartesian functions: 1446
    Spherical Harmonics?: true
    Max angular momentum: 4

  Minimum eigenvalue in the overlap matrix is 8.5236548151E-06.
  Reciprocal condition number of the overlap matrix is 4.5712674386E-07.
    Using symmetric orthogonalization.

  ==> Pre-Iterations <==

  SCF Guess: Superposition of Atomic Densities via on-the-fly atomic UHF (no occupation information).

   -------------------------
    Irrep   Nso     Nmo    
   -------------------------
     A        552     552 
   -------------------------
    Total     552     552
   -------------------------

  ==> Iterations <==

                           Total Energy        Delta E     RMS |[F,P]|

   @DF-RHF iter SAD:  -307.09347622549853   -3.07093e+02   0.00000e+00 
   @DF-RHF iter   1:  -308.01823869611576   -9.24762e-01   1.30384e-03 DIIS/ADIIS
   @DF-RHF iter   2:  -308.23749329901716   -2.19255e-01   6.73862e-04 DIIS/ADIIS
   @DF-RHF iter   3:  -308.29092195277309   -5.34287e-02   1.16484e-04 DIIS/ADIIS
   @DF-RHF iter   4:  -308.29402291503550   -3.10096e-03   4.21937e-05 DIIS
   @DF-RHF iter   5:  -308.29433670322453   -3.13788e-04   8.60538e-06 DIIS
   @DF-RHF iter   6:  -308.29435691076617   -2.02075e-05   1.95220e-06 DIIS
   @DF-RHF iter   7:  -308.29435822243312   -1.31167e-06   5.68281e-07 DIIS
   @DF-RHF iter   8:  -308.29435831773219   -9.52991e-08   1.73330e-07 DIIS
   @DF-RHF iter   9:  -308.29435832758952   -9.85733e-09   5.16380e-08 DIIS
   @DF-RHF iter  10:  -308.29435832835128   -7.61759e-10   1.98436e-08 DIIS
   @DF-RHF iter  11:  -308.29435832843001   -7.87281e-11   4.62176e-09 DIIS
  Energy and wave function converged.


  ==> Post-Iterations <==

    Orbital Energies [Eh]
    ---------------------

    Doubly Occupied:                                                      

       1A    -20.578231     2A    -20.526106     3A    -11.286796  
       4A    -11.254984     5A    -11.217158     6A    -11.200750  
       7A     -1.383748     8A     -1.336871     9A     -1.025936  
      10A     -0.995144    11A     -0.846393    12A     -0.827783  
      13A     -0.724392    14A     -0.674887    15A     -0.655114  
      16A     -0.607028    17A     -0.598449    18A     -0.582434  
      19A     -0.543118    20A     -0.536322    21A     -0.527847  
      22A     -0.509229    23A     -0.502140    24A     -0.463935  
      25A     -0.452437    26A     -0.419152  

    Virtual:                                                              

      27A      0.024961    28A      0.035504    29A      0.037380  
      30A      0.041224    31A      0.051020    32A      0.052943  
      33A      0.053800    34A      0.063618    35A      0.068769  
      36A      0.079800    37A      0.082358    38A      0.086324  
      39A      0.109829    40A      0.111902    41A      0.123084  
      42A      0.123837    43A      0.133328    44A      0.136127  
      45A      0.139093    46A      0.143471    47A      0.144699  
      48A      0.151829    49A      0.154908    50A      0.159447  
      51A      0.168488    52A      0.179574    53A      0.182334  
      54A      0.193676    55A      0.202928    56A      0.214839  
      57A      0.216841    58A      0.226783    59A      0.239103  
      60A      0.245487    61A      0.249450    62A      0.261224  
      63A      0.272110    64A      0.274635    65A      0.277724  
      66A      0.291814    67A      0.294048    68A      0.306929  
      69A      0.310280    70A      0.311846    71A      0.320374  
      72A      0.327805    73A      0.331076    74A      0.339416  
      75A      0.340949    76A      0.349891    77A      0.355693  
      78A      0.358274    79A      0.360363    80A      0.364789  
      81A      0.371694    82A      0.374058    83A      0.380401  
      84A      0.385948    85A      0.393752    86A      0.398388  
      87A      0.406360    88A      0.408791    89A      0.415465  
      90A      0.420030    91A      0.426035    92A      0.429426  
      93A      0.434998    94A      0.438219    95A      0.442218  
      96A      0.451244    97A      0.459137    98A      0.464295  
      99A      0.468390   100A      0.473201   101A      0.474715  
     102A      0.481383   103A      0.485183   104A      0.489026  
     105A      0.492776   106A      0.500450   107A      0.505210  
     108A      0.507438   109A      0.519490   110A      0.521824  
     111A      0.527453   112A      0.529717   113A      0.536771  
     114A      0.541152   115A      0.544973   116A      0.556802  
     117A      0.561997   118A      0.574528   119A      0.579382  
     120A      0.582312   121A      0.591979   122A      0.597895  
     123A      0.608777   124A      0.612284   125A      0.615819  
     126A      0.624896   127A      0.639234   128A      0.644963  
     129A      0.649141   130A      0.667949   131A      0.673065  
     132A      0.692503   133A      0.699852   134A      0.724520  
     135A      0.736858   136A      0.737990   137A      0.757198  
     138A      0.770013   139A      0.773332   140A      0.781481  
     141A      0.798840   142A      0.802515   143A      0.812719  
     144A      0.828485   145A      0.833144   146A      0.838430  
     147A      0.850225   148A      0.856290   149A      0.862157  
     150A      0.873602   151A      0.873693   152A      0.884560  
     153A      0.886663   154A      0.897389   155A      0.899624  
     156A      0.906629   157A      0.913187   158A      0.921391  
     159A      0.923766   160A      0.928701   161A      0.937236  
     162A      0.943421   163A      0.952786   164A      0.964408  
     165A      0.969775   166A      0.974186   167A      0.977191  
     168A      0.980558   169A      0.989493   170A      1.000278  
     171A      1.005705   172A      1.018489   173A      1.026540  
     174A      1.028704   175A      1.033517   176A      1.042244  
     177A      1.048669   178A      1.060460   179A      1.068475  
     180A      1.070483   181A      1.079207   182A      1.083970  
     183A      1.091769   184A      1.099450   185A      1.103162  
     186A      1.112442   187A      1.122252   188A      1.130678  
     189A      1.132306   190A      1.137879   191A      1.147335  
     192A      1.153220   193A      1.165109   194A      1.171945  
     195A      1.180298   196A      1.181922   197A      1.188122  
     198A      1.192213   199A      1.209197   200A      1.212550  
     201A      1.222703   202A      1.232779   203A      1.238792  
     204A      1.255369   205A      1.265334   206A      1.266238  
     207A      1.275348   208A      1.293381   209A      1.298299  
     210A      1.305018   211A      1.313340   212A      1.320723  
     213A      1.333154   214A      1.344882   215A      1.349096  
     216A      1.355948   217A      1.363814   218A      1.379223  
     219A      1.382424   220A      1.396063   221A      1.398974  
     222A      1.413452   223A      1.425659   224A      1.431063  
     225A      1.446639   226A      1.449081   227A      1.463679  
     228A      1.473134   229A      1.476581   230A      1.487686  
     231A      1.504182   232A      1.510319   233A      1.536272  
     234A      1.543602   235A      1.552871   236A      1.562750  
     237A      1.576222   238A      1.579440   239A      1.597337  
     240A      1.604618   241A      1.615917   242A      1.621545  
     243A      1.632051   244A      1.641081   245A      1.649084  
     246A      1.663538   247A      1.671845   248A      1.678088  
     249A      1.688646   250A      1.694619   251A      1.704916  
     252A      1.712501   253A      1.720766   254A      1.721947  
     255A      1.729974   256A      1.736035   257A      1.752253  
     258A      1.761300   259A      1.770222   260A      1.779994  
     261A      1.784545   262A      1.792449   263A      1.803556  
     264A      1.807077   265A      1.826566   266A      1.832930  
     267A      1.836015   268A      1.851501   269A      1.856828  
     270A      1.865514   271A      1.880417   272A      1.898729  
     273A      1.901898   274A      1.913828   275A      1.928002  
     276A      1.936560   277A      1.948030   278A      1.958875  
     279A      1.969087   280A      1.976067   281A      2.000637  
     282A      2.003878   283A      2.014869   284A      2.020904  
     285A      2.054254   286A      2.061608   287A      2.074405  
     288A      2.087889   289A      2.091710   290A      2.105738  
     291A      2.119739   292A      2.129410   293A      2.138071  
     294A      2.141732   295A      2.165598   296A      2.170393  
     297A      2.204725   298A      2.215584   299A      2.234886  
     300A      2.242230   301A      2.253449   302A      2.263644  
     303A      2.265992   304A      2.294824   305A      2.309237  
     306A      2.315430   307A      2.328519   308A      2.353826  
     309A      2.361082   310A      2.370907   311A      2.396479  
     312A      2.402487   313A      2.424051   314A      2.441818  
     315A      2.459211   316A      2.475906   317A      2.507955  
     318A      2.519248   319A      2.564903   320A      2.612556  
     321A      2.643707   322A      2.681709   323A      2.697492  
     324A      2.715427   325A      2.738816   326A      2.747140  
     327A      2.820151   328A      2.831113   329A      2.852936  
     330A      2.880898   331A      2.889048   332A      2.904545  
     333A      2.926116   334A      2.938180   335A      2.956552  
     336A      2.984469   337A      2.991503   338A      3.043207  
     339A      3.080391   340A      3.093186   341A      3.121597  
     342A      3.138956   343A      3.157311   344A      3.160910  
     345A      3.208948   346A      3.231515   347A      3.252212  
     348A      3.277733   349A      3.306485   350A      3.319498  
     351A      3.387701   352A      3.402249   353A      3.431866  
     354A      3.456201   355A      3.475621   356A      3.486115  
     357A      3.497640   358A      3.520757   359A      3.550720  
     360A      3.559546   361A      3.610278   362A      3.622369  
     363A      3.639249   364A      3.652087   365A      3.669863  
     366A      3.678221   367A      3.685306   368A      3.692886  
     369A      3.697823   370A      3.725702   371A      3.730470  
     372A      3.751059   373A      3.767521   374A      3.779033  
     375A      3.802459   376A      3.817390   377A      3.820573  
     378A      3.826321   379A      3.831825   380A      3.847550  
     381A      3.878517   382A      3.893652   383A      3.915600  
     384A      3.942043   385A      3.952762   386A      3.962867  
     387A      3.976555   388A      3.988257   389A      3.992241  
     390A      4.008016   391A      4.018870   392A      4.035307  
     393A      4.054039   394A      4.066933   395A      4.069806  
     396A      4.078248   397A      4.100718   398A      4.122571  
     399A      4.127425   400A      4.151131   401A      4.166330  
     402A      4.176559   403A      4.189930   404A      4.198134  
     405A      4.201274   406A      4.214258   407A      4.225819  
     408A      4.236848   409A      4.266074   410A      4.274061  
     411A      4.281995   412A      4.307748   413A      4.330031  
     414A      4.356305   415A      4.362893   416A      4.379092  
     417A      4.397627   418A      4.414043   419A      4.424768  
     420A      4.447637   421A      4.489602   422A      4.494666  
     423A      4.524308   424A      4.528667   425A      4.552580  
     426A      4.577786   427A      4.583586   428A      4.595099  
     429A      4.612995   430A      4.616512   431A      4.641781  
     432A      4.662736   433A      4.673855   434A      4.697788  
     435A      4.727607   436A      4.756309   437A      4.771686  
     438A      4.784687   439A      4.807244   440A      4.820476  
     441A      4.828777   442A      4.831462   443A      4.847807  
     444A      4.874053   445A      4.882681   446A      4.898328  
     447A      4.910770   448A      4.914135   449A      4.936425  
     450A      4.948048   451A      4.975991   452A      5.001942  
     453A      5.017151   454A      5.023155   455A      5.050248  
     456A      5.058410   457A      5.074064   458A      5.079945  
     459A      5.110255   460A      5.125068   461A      5.135740  
     462A      5.150356   463A      5.171219   464A      5.193841  
     465A      5.204989   466A      5.226158   467A      5.230686  
     468A      5.264606   469A      5.284966   470A      5.292457  
     471A      5.326991   472A      5.335860   473A      5.352350  
     474A      5.366732   475A      5.380233   476A      5.399842  
     477A      5.418947   478A      5.462714   479A      5.478784  
     480A      5.502186   481A      5.526758   482A      5.542933  
     483A      5.567309   484A      5.576807   485A      5.608351  
     486A      5.622728   487A      5.630647   488A      5.647556  
     489A      5.687768   490A      5.694201   491A      5.712166  
     492A      5.751379   493A      5.771516   494A      5.774689  
     495A      5.811574   496A      5.836465   497A      5.860894  
     498A      5.883230   499A      6.017450   500A      6.021337  
     501A      6.051082   502A      6.101929   503A      6.113600  
     504A      6.138660   505A      6.178761   506A      6.198545  
     507A      6.200756   508A      6.241177   509A      6.260547  
     510A      6.297912   511A      6.340364   512A      6.390006  
     513A      6.402992   514A      6.447523   515A      6.704555  
     516A      6.732714   517A      6.744932   518A      6.801065  
     519A      6.808912   520A      6.848524   521A      6.874892  
     522A      6.895951   523A      7.019637   524A      7.047512  
     525A      7.099868   526A      7.169287   527A      7.196735  
     528A      7.219243   529A      7.339890   530A      7.370845  
     531A      7.466283   532A      7.499145   533A      7.526499  
     534A      7.569458   535A      7.611093   536A      7.645263  
     537A      7.692297   538A      7.733667   539A      7.844530  
     540A      7.945141   541A      7.985258   542A      8.086664  
     543A      8.269601   544A      8.315957   545A      8.643230  
     546A      8.723873   547A     16.103112   548A     17.139534  
     549A     17.798769   550A     18.104571   551A     18.550329  
     552A     18.564065  

    Final Occupation by Irrep:
              A 
    DOCC [    26 ]
    NA   [    26 ]
    NB   [    26 ]

  @DF-RHF Final Energy:  -308.29435832843001

   => Energetics <=

    Nuclear Repulsion Energy =            258.9974092687992311
    One-Electron Energy =                -934.0307664091111519
    Two-Electron Energy =                 366.7389988118818565
    Total Energy =                       -308.2943583284300075

Computation Completed


Properties will be evaluated at   0.000000,   0.000000,   0.000000 [a0]

Properties computed using the SCF density matrix


 Multipole Moments:

 ------------------------------------------------------------------------------------
     Multipole            Electronic (a.u.)      Nuclear  (a.u.)        Total (a.u.)
 ------------------------------------------------------------------------------------

 L = 1.  Multiply by 2.5417464519 to convert [e a0] to [Debye]
 Dipole X            :          0.9825732            0.0000000            0.9825732
 Dipole Y            :          0.5505281           -0.0000094            0.5505186
 Dipole Z            :         -0.4616539            0.0000038           -0.4616501
 Magnitude           :                                                    1.2172270

 ------------------------------------------------------------------------------------

*** tstop() called on moses-razer at Sat Mar  1 09:18:48 2025
Module time:
	user time   =     185.81 seconds =       3.10 minutes
	system time =       2.81 seconds =       0.05 minutes
	total time  =        189 seconds =       3.15 minutes
Total time:
	user time   =     185.81 seconds =       3.10 minutes
	system time =       2.81 seconds =       0.05 minutes
	total time  =        189 seconds =       3.15 minutes

  //>>>>>>>>>>>>>>>>>>>>>>>>>>>>>>>>>>>//
  //            Monomer A HF           //
  //<<<<<<<<<<<<<<<<<<<<<<<<<<<<<<<<<<<//

   => Libint2 <=

    Primary   basis highest AM E, G, H:  5, 4, 3
    Auxiliary basis highest AM E, G, H:  6, 5, 4
    Onebody   basis highest AM E, G, H:  6, 5, 4
    Solid Harmonics ordering:            gaussian

*** tstart() called on moses-razer
*** at Sat Mar  1 09:18:48 2025

   => Loading Basis Set <=

    Name: AUG-CC-PVTZ
    Role: ORBITAL
    Keyword: BASIS
    atoms 1-2, 10-11 entry C          line   239 file /home/kchung25/anaconda3/envs/p415env/share/psi4/basis/aug-cc-pvtz.gbs 
    atoms 3, 12      entry O          line   331 file /home/kchung25/anaconda3/envs/p415env/share/psi4/basis/aug-cc-pvtz.gbs 
    atoms 4-9, 13-18 entry H          line    40 file /home/kchung25/anaconda3/envs/p415env/share/psi4/basis/aug-cc-pvtz.gbs 


         ---------------------------------------------------------
                                   SCF
               by Justin Turney, Rob Parrish, Andy Simmonett
                          and Daniel G. A. Smith
                              RHF Reference
                        1 Threads,   9536 MiB Core
         ---------------------------------------------------------

  ==> Geometry <==

    Molecular point group: c1
    Full point group: C1

    Geometry (in Angstrom), charge = 0, multiplicity = 1:

       Center              X                  Y                   Z               Mass       
    ------------   -----------------  -----------------  -----------------  -----------------
         C           -2.487597000000     0.608687000000    -0.583554000000    12.000000000000
         C           -1.837698000000    -0.656164000000    -0.076304000000    12.000000000000
         O           -1.085446000000    -0.443379000000     1.089982000000    15.994914619570
         H           -0.371751000000     0.172884000000     0.864426000000     1.007825032230
         H           -3.099850000000     0.414336000000    -1.467330000000     1.007825032230
         H           -1.727073000000     1.345474000000    -0.856583000000     1.007825032230
         H           -3.123218000000     1.046984000000     0.188632000000     1.007825032230
         H           -1.216734000000    -1.099176000000    -0.871686000000     1.007825032230
         H           -2.598797000000    -1.401041000000     0.175005000000     1.007825032230
      Gh(C)           1.918981000000    -1.043395000000    -0.470114000000    12.000000000000
      Gh(C)           2.292208000000     0.315008000000     0.050278000000    12.000000000000
      Gh(O)           1.116813000000     1.110588000000     0.084284000000    15.994914619570
      Gh(H)           1.332036000000     1.988261000000     0.406597000000     1.007825032230
      Gh(H)           2.794996000000    -1.691769000000    -0.514538000000     1.007825032230
      Gh(H)           1.498225000000    -0.964042000000    -1.474590000000     1.007825032230
      Gh(H)           1.173296000000    -1.510155000000     0.177450000000     1.007825032230
      Gh(H)           3.044584000000     0.782449000000    -0.598000000000     1.007825032230
      Gh(H)           2.727986000000     0.233302000000     1.054655000000     1.007825032230

  Running in c1 symmetry.

  Rotational constants: A =      0.17147  B =      0.04729  C =      0.04368 [cm^-1]
  Rotational constants: A =   5140.58970  B =   1417.71819  C =   1309.47120 [MHz]
  Nuclear repulsion =   82.184970001271410

  Charge       = 0
  Multiplicity = 1
  Electrons    = 26
  Nalpha       = 13
  Nbeta        = 13

  ==> Algorithm <==

  SCF Algorithm Type is DF.
  DIIS enabled.
  MOM disabled.
  Fractional occupation disabled.
  Guess Type is SAD.
  Energy threshold   = 1.00e-08
  Density threshold  = 1.00e-08
  Integral threshold = 1.00e-12

  ==> Primary Basis <==

  Basis Set: AUG-CC-PVTZ
    Blend: AUG-CC-PVTZ
    Number of shells: 192
    Number of basis functions: 552
    Number of Cartesian functions: 630
    Spherical Harmonics?: true
    Max angular momentum: 3

   => Loading Basis Set <=

    Name: (AUG-CC-PVTZ AUX)
    Role: JKFIT
    Keyword: DF_BASIS_SCF
    atoms 1-2, 10-11 entry C          line   162 file /home/kchung25/anaconda3/envs/p415env/share/psi4/basis/aug-cc-pvtz-jkfit.gbs 
    atoms 3, 12      entry O          line   286 file /home/kchung25/anaconda3/envs/p415env/share/psi4/basis/aug-cc-pvtz-jkfit.gbs 
    atoms 4-9, 13-18 entry H          line    70 file /home/kchung25/anaconda3/envs/p415env/share/psi4/basis/aug-cc-pvtz-jkfit.gbs 

  ==> Integral Setup <==

  ==> DiskDFJK: Density-Fitted J/K Matrices <==

    J tasked:                  Yes
    K tasked:                  Yes
    wK tasked:                  No
    OpenMP threads:              1
    Integrals threads:           1
    Memory [MiB]:             7152
    Algorithm:                Core
    Integral Cache:           LOAD
    Schwarz Cutoff:          1E-12
    Fitting Condition:       1E-10

   => Auxiliary Basis Set <=

  Basis Set: (AUG-CC-PVTZ AUX)
    Blend: AUG-CC-PVTZ-JKFIT
    Number of shells: 348
    Number of basis functions: 1176
    Number of Cartesian functions: 1446
    Spherical Harmonics?: true
    Max angular momentum: 4

  Minimum eigenvalue in the overlap matrix is 8.5236548151E-06.
  Reciprocal condition number of the overlap matrix is 4.5712674386E-07.
    Using symmetric orthogonalization.

  ==> Pre-Iterations <==

  SCF Guess: Superposition of Atomic Densities via on-the-fly atomic UHF (no occupation information).

   -------------------------
    Irrep   Nso     Nmo    
   -------------------------
     A        552     552 
   -------------------------
    Total     552     552
   -------------------------

  ==> Iterations <==

                           Total Energy        Delta E     RMS |[F,P]|

   @DF-RHF iter SAD:  -153.45974391930997   -1.53460e+02   0.00000e+00 
   @DF-RHF iter   1:  -154.00243984246336   -5.42696e-01   9.38113e-04 DIIS/ADIIS
   @DF-RHF iter   2:  -154.11457930574036   -1.12139e-01   4.96974e-04 DIIS/ADIIS
   @DF-RHF iter   3:  -154.14280961981314   -2.82303e-02   8.40668e-05 DIIS
   @DF-RHF iter   4:  -154.14439856068569   -1.58894e-03   3.23130e-05 DIIS
   @DF-RHF iter   5:  -154.14458732971869   -1.88769e-04   6.26354e-06 DIIS
   @DF-RHF iter   6:  -154.14459790550495   -1.05758e-05   1.45463e-06 DIIS
   @DF-RHF iter   7:  -154.14459867311433   -7.67609e-07   4.18671e-07 DIIS
   @DF-RHF iter   8:  -154.14459873144213   -5.83278e-08   1.31526e-07 DIIS
   @DF-RHF iter   9:  -154.14459873794868   -6.50655e-09   3.35400e-08 DIIS
   @DF-RHF iter  10:  -154.14459873839888   -4.50200e-10   6.56152e-09 DIIS
  Energy and wave function converged.


  ==> Post-Iterations <==

    Orbital Energies [Eh]
    ---------------------

    Doubly Occupied:                                                      

       1A    -20.557444     2A    -11.273303     3A    -11.217284  
       4A     -1.363497     5A     -1.013052     6A     -0.846285  
       7A     -0.689467     8A     -0.627274     9A     -0.607949  
      10A     -0.546015    11A     -0.526720    12A     -0.479445  
      13A     -0.442296  

    Virtual:                                                              

      14A      0.019871    15A      0.033860    16A      0.034484  
      17A      0.039264    18A      0.049542    19A      0.051708  
      20A      0.052270    21A      0.062151    22A      0.068518  
      23A      0.077777    24A      0.078677    25A      0.084130  
      26A      0.087470    27A      0.107218    28A      0.111019  
      29A      0.118387    30A      0.120975    31A      0.126951  
      32A      0.133005    33A      0.136059    34A      0.137810  
      35A      0.144243    36A      0.145771    37A      0.156211  
      38A      0.161822    39A      0.168067    40A      0.176153  
      41A      0.192047    42A      0.193472    43A      0.203596  
      44A      0.209833    45A      0.216830    46A      0.223848  
      47A      0.236210    48A      0.245120    49A      0.250241  
      50A      0.261756    51A      0.270978    52A      0.278048  
      53A      0.282325    54A      0.287548    55A      0.294863  
      56A      0.298747    57A      0.303260    58A      0.313311  
      59A      0.318100    60A      0.326383    61A      0.327682  
      62A      0.333383    63A      0.336938    64A      0.341220  
      65A      0.345370    66A      0.353632    67A      0.360301  
      68A      0.361572    69A      0.364054    70A      0.370267  
      71A      0.381956    72A      0.388189    73A      0.397128  
      74A      0.402448    75A      0.404854    76A      0.406447  
      77A      0.412531    78A      0.421123    79A      0.426218  
      80A      0.431413    81A      0.436147    82A      0.440695  
      83A      0.443003    84A      0.449176    85A      0.456563  
      86A      0.462478    87A      0.467947    88A      0.474745  
      89A      0.479523    90A      0.486409    91A      0.490180  
      92A      0.494795    93A      0.508868    94A      0.510872  
      95A      0.520460    96A      0.521480    97A      0.526178  
      98A      0.529904    99A      0.535045   100A      0.546580  
     101A      0.549462   102A      0.557915   103A      0.564237  
     104A      0.572586   105A      0.582685   106A      0.590197  
     107A      0.602354   108A      0.604814   109A      0.606819  
     110A      0.616684   111A      0.624485   112A      0.629594  
     113A      0.638033   114A      0.645956   115A      0.654298  
     116A      0.662171   117A      0.671095   118A      0.676503  
     119A      0.681039   120A      0.683404   121A      0.692869  
     122A      0.704442   123A      0.724326   124A      0.726385  
     125A      0.740696   126A      0.756214   127A      0.766405  
     128A      0.776153   129A      0.779315   130A      0.800164  
     131A      0.811966   132A      0.822776   133A      0.834573  
     134A      0.845266   135A      0.851267   136A      0.860282  
     137A      0.868559   138A      0.885995   139A      0.888846  
     140A      0.902285   141A      0.903610   142A      0.918988  
     143A      0.921076   144A      0.933567   145A      0.947877  
     146A      0.952292   147A      0.956148   148A      0.959550  
     149A      0.969373   150A      0.976702   151A      0.989086  
     152A      1.001104   153A      1.003399   154A      1.006838  
     155A      1.010629   156A      1.021121   157A      1.024486  
     158A      1.034593   159A      1.042419   160A      1.045605  
     161A      1.055251   162A      1.068490   163A      1.070658  
     164A      1.077297   165A      1.080551   166A      1.085873  
     167A      1.091726   168A      1.096511   169A      1.113202  
     170A      1.117023   171A      1.123172   172A      1.130104  
     173A      1.136569   174A      1.151962   175A      1.155997  
     176A      1.160941   177A      1.165086   178A      1.167589  
     179A      1.182258   180A      1.183779   181A      1.190642  
     182A      1.196034   183A      1.204340   184A      1.219215  
     185A      1.220806   186A      1.228476   187A      1.236342  
     188A      1.241340   189A      1.246785   190A      1.256087  
     191A      1.268991   192A      1.276498   193A      1.290177  
     194A      1.297588   195A      1.300246   196A      1.305964  
     197A      1.319493   198A      1.328117   199A      1.332824  
     200A      1.340948   201A      1.356000   202A      1.360617  
     203A      1.365475   204A      1.374896   205A      1.376773  
     206A      1.387299   207A      1.394497   208A      1.404979  
     209A      1.409397   210A      1.423809   211A      1.436554  
     212A      1.438688   213A      1.453266   214A      1.455191  
     215A      1.472606   216A      1.482180   217A      1.489721  
     218A      1.498144   219A      1.508241   220A      1.520667  
     221A      1.530009   222A      1.537585   223A      1.544872  
     224A      1.567137   225A      1.570653   226A      1.586961  
     227A      1.595847   228A      1.597795   229A      1.619123  
     230A      1.630858   231A      1.642455   232A      1.645087  
     233A      1.660308   234A      1.667896   235A      1.674706  
     236A      1.680863   237A      1.696223   238A      1.709999  
     239A      1.713140   240A      1.733533   241A      1.739150  
     242A      1.746374   243A      1.761832   244A      1.770892  
     245A      1.789471   246A      1.790971   247A      1.811253  
     248A      1.813986   249A      1.827734   250A      1.835260  
     251A      1.847165   252A      1.859717   253A      1.865943  
     254A      1.888261   255A      1.899213   256A      1.907688  
     257A      1.917757   258A      1.924291   259A      1.934621  
     260A      1.942856   261A      1.954107   262A      1.969614  
     263A      1.985644   264A      1.997088   265A      2.009424  
     266A      2.015505   267A      2.028166   268A      2.032128  
     269A      2.035364   270A      2.067325   271A      2.074853  
     272A      2.080603   273A      2.105830   274A      2.109769  
     275A      2.128406   276A      2.142067   277A      2.145571  
     278A      2.162443   279A      2.182678   280A      2.185595  
     281A      2.206087   282A      2.217071   283A      2.228054  
     284A      2.234436   285A      2.242237   286A      2.246521  
     287A      2.266106   288A      2.269941   289A      2.287590  
     290A      2.301766   291A      2.311947   292A      2.330677  
     293A      2.359930   294A      2.378283   295A      2.389199  
     296A      2.427780   297A      2.443878   298A      2.450197  
     299A      2.462655   300A      2.475750   301A      2.494240  
     302A      2.514760   303A      2.528951   304A      2.563523  
     305A      2.578898   306A      2.618646   307A      2.660589  
     308A      2.671349   309A      2.674800   310A      2.704837  
     311A      2.719999   312A      2.737602   313A      2.749325  
     314A      2.771224   315A      2.793614   316A      2.802525  
     317A      2.823970   318A      2.833631   319A      2.853926  
     320A      2.862406   321A      2.925179   322A      2.935882  
     323A      2.962516   324A      2.986309   325A      3.029412  
     326A      3.041457   327A      3.061211   328A      3.070321  
     329A      3.100957   330A      3.122732   331A      3.133333  
     332A      3.191120   333A      3.204567   334A      3.224266  
     335A      3.237420   336A      3.289019   337A      3.305604  
     338A      3.323882   339A      3.385500   340A      3.394522  
     341A      3.424267   342A      3.457299   343A      3.478792  
     344A      3.529827   345A      3.541964   346A      3.550412  
     347A      3.568348   348A      3.578093   349A      3.611655  
     350A      3.633910   351A      3.648402   352A      3.678121  
     353A      3.679937   354A      3.713776   355A      3.738988  
     356A      3.775299   357A      3.787914   358A      3.802877  
     359A      3.818911   360A      3.834352   361A      3.868065  
     362A      3.911706   363A      3.930002   364A      3.957253  
     365A      3.975329   366A      3.977835   367A      3.993404  
     368A      4.009565   369A      4.049482   370A      4.068876  
     371A      4.079842   372A      4.117004   373A      4.120184  
     374A      4.137483   375A      4.148381   376A      4.158560  
     377A      4.170877   378A      4.178555   379A      4.194930  
     380A      4.213905   381A      4.227626   382A      4.235297  
     383A      4.249875   384A      4.266146   385A      4.299097  
     386A      4.315343   387A      4.349055   388A      4.357564  
     389A      4.371093   390A      4.388536   391A      4.413504  
     392A      4.438195   393A      4.450770   394A      4.464951  
     395A      4.475510   396A      4.493502   397A      4.513600  
     398A      4.525326   399A      4.544506   400A      4.566763  
     401A      4.577204   402A      4.593687   403A      4.595959  
     404A      4.617998   405A      4.626625   406A      4.660888  
     407A      4.673851   408A      4.682357   409A      4.689405  
     410A      4.728563   411A      4.739395   412A      4.754650  
     413A      4.771188   414A      4.790806   415A      4.814569  
     416A      4.819552   417A      4.834028   418A      4.853167  
     419A      4.862500   420A      4.877387   421A      4.889624  
     422A      4.904610   423A      4.916176   424A      4.924359  
     425A      4.955899   426A      4.963018   427A      4.972565  
     428A      4.980831   429A      5.003803   430A      5.030328  
     431A      5.048179   432A      5.050984   433A      5.057971  
     434A      5.082197   435A      5.105683   436A      5.124484  
     437A      5.138007   438A      5.143843   439A      5.166431  
     440A      5.212740   441A      5.219255   442A      5.233898  
     443A      5.271522   444A      5.283884   445A      5.297144  
     446A      5.314779   447A      5.324685   448A      5.335833  
     449A      5.366268   450A      5.377694   451A      5.405495  
     452A      5.421436   453A      5.444527   454A      5.450511  
     455A      5.484095   456A      5.518283   457A      5.534033  
     458A      5.551158   459A      5.564216   460A      5.570190  
     461A      5.589204   462A      5.596800   463A      5.611339  
     464A      5.627348   465A      5.657027   466A      5.670185  
     467A      5.678831   468A      5.695407   469A      5.718212  
     470A      5.730831   471A      5.751228   472A      5.778647  
     473A      5.800869   474A      5.843060   475A      5.862976  
     476A      5.868202   477A      5.946828   478A      5.976963  
     479A      6.009452   480A      6.033360   481A      6.060760  
     482A      6.094488   483A      6.130464   484A      6.135810  
     485A      6.167666   486A      6.181478   487A      6.224191  
     488A      6.241939   489A      6.272919   490A      6.296082  
     491A      6.308300   492A      6.351162   493A      6.406007  
     494A      6.465983   495A      6.544740   496A      6.716094  
     497A      6.775645   498A      6.792801   499A      6.813057  
     500A      6.852387   501A      6.871573   502A      6.949942  
     503A      7.019219   504A      7.026794   505A      7.044498  
     506A      7.074446   507A      7.173238   508A      7.195456  
     509A      7.246980   510A      7.303789   511A      7.429901  
     512A      7.444745   513A      7.557324   514A      7.615113  
     515A      7.693401   516A      7.761792   517A      7.855753  
     518A      7.867602   519A      7.883651   520A      7.910065  
     521A      7.959978   522A      8.017052   523A      8.048643  
     524A      8.063736   525A      8.139888   526A      8.184100  
     527A      8.245637   528A      8.287445   529A      8.331182  
     530A      8.379660   531A      8.464925   532A      8.608551  
     533A      8.710621   534A      8.879679   535A      9.056019  
     536A      9.984568   537A     10.117929   538A     10.339518  
     539A     10.412618   540A     10.447613   541A     10.807150  
     542A     11.089398   543A     11.978236   544A     12.456169  
     545A     13.308648   546A     14.143627   547A     17.064648  
     548A     17.786219   549A     18.518026   550A     53.267433  
     551A     54.376924   552A     66.432858  

    Final Occupation by Irrep:
              A 
    DOCC [    13 ]
    NA   [    13 ]
    NB   [    13 ]

  @DF-RHF Final Energy:  -154.14459873839888

   => Energetics <=

    Nuclear Repulsion Energy =             82.1849700012714095
    One-Electron Energy =                -372.2790698632971953
    Two-Electron Energy =                 135.9495011236269306
    Total Energy =                       -154.1445987383988836

Computation Completed


Properties will be evaluated at   0.000000,   0.000000,   0.000000 [a0]

Properties computed using the SCF density matrix


 Multipole Moments:

 ------------------------------------------------------------------------------------
     Multipole            Electronic (a.u.)      Nuclear  (a.u.)        Total (a.u.)
 ------------------------------------------------------------------------------------

 L = 1.  Multiply by 2.5417464519 to convert [e a0] to [Debye]
 Dipole X            :         88.4664293          -88.3877084            0.0787209
 Dipole Y            :          6.6385304           -6.3351802            0.3033502
 Dipole Z            :         -5.9112792            5.2783301           -0.6329491
 Magnitude           :                                                    0.7062881

 ------------------------------------------------------------------------------------

*** tstop() called on moses-razer at Sat Mar  1 09:21:25 2025
Module time:
	user time   =     154.15 seconds =       2.57 minutes
	system time =       1.69 seconds =       0.03 minutes
	total time  =        157 seconds =       2.62 minutes
Total time:
	user time   =     339.97 seconds =       5.67 minutes
	system time =       4.50 seconds =       0.07 minutes
	total time  =        346 seconds =       5.77 minutes

  //>>>>>>>>>>>>>>>>>>>>>>>>>>>>>>>>>>>//
  //            Monomer B HF           //
  //<<<<<<<<<<<<<<<<<<<<<<<<<<<<<<<<<<<//

   => Libint2 <=

    Primary   basis highest AM E, G, H:  5, 4, 3
    Auxiliary basis highest AM E, G, H:  6, 5, 4
    Onebody   basis highest AM E, G, H:  6, 5, 4
    Solid Harmonics ordering:            gaussian

*** tstart() called on moses-razer
*** at Sat Mar  1 09:21:25 2025

   => Loading Basis Set <=

    Name: AUG-CC-PVTZ
    Role: ORBITAL
    Keyword: BASIS
    atoms 1-2, 10-11 entry C          line   239 file /home/kchung25/anaconda3/envs/p415env/share/psi4/basis/aug-cc-pvtz.gbs 
    atoms 3, 12      entry O          line   331 file /home/kchung25/anaconda3/envs/p415env/share/psi4/basis/aug-cc-pvtz.gbs 
    atoms 4-9, 13-18 entry H          line    40 file /home/kchung25/anaconda3/envs/p415env/share/psi4/basis/aug-cc-pvtz.gbs 


         ---------------------------------------------------------
                                   SCF
               by Justin Turney, Rob Parrish, Andy Simmonett
                          and Daniel G. A. Smith
                              RHF Reference
                        1 Threads,   9536 MiB Core
         ---------------------------------------------------------

  ==> Geometry <==

    Molecular point group: c1
    Full point group: C1

    Geometry (in Angstrom), charge = 0, multiplicity = 1:

       Center              X                  Y                   Z               Mass       
    ------------   -----------------  -----------------  -----------------  -----------------
      Gh(C)          -2.487597000000     0.608687000000    -0.583554000000    12.000000000000
      Gh(C)          -1.837698000000    -0.656164000000    -0.076304000000    12.000000000000
      Gh(O)          -1.085446000000    -0.443379000000     1.089982000000    15.994914619570
      Gh(H)          -0.371751000000     0.172884000000     0.864426000000     1.007825032230
      Gh(H)          -3.099850000000     0.414336000000    -1.467330000000     1.007825032230
      Gh(H)          -1.727073000000     1.345474000000    -0.856583000000     1.007825032230
      Gh(H)          -3.123218000000     1.046984000000     0.188632000000     1.007825032230
      Gh(H)          -1.216734000000    -1.099176000000    -0.871686000000     1.007825032230
      Gh(H)          -2.598797000000    -1.401041000000     0.175005000000     1.007825032230
         C            1.918981000000    -1.043395000000    -0.470114000000    12.000000000000
         C            2.292208000000     0.315008000000     0.050278000000    12.000000000000
         O            1.116813000000     1.110588000000     0.084284000000    15.994914619570
         H            1.332036000000     1.988261000000     0.406597000000     1.007825032230
         H            2.794996000000    -1.691769000000    -0.514538000000     1.007825032230
         H            1.498225000000    -0.964042000000    -1.474590000000     1.007825032230
         H            1.173296000000    -1.510155000000     0.177450000000     1.007825032230
         H            3.044584000000     0.782449000000    -0.598000000000     1.007825032230
         H            2.727986000000     0.233302000000     1.054655000000     1.007825032230

  Running in c1 symmetry.

  Rotational constants: A =      0.17147  B =      0.04729  C =      0.04368 [cm^-1]
  Rotational constants: A =   5140.58970  B =   1417.71819  C =   1309.47120 [MHz]
  Nuclear repulsion =   82.112727038478255

  Charge       = 0
  Multiplicity = 1
  Electrons    = 26
  Nalpha       = 13
  Nbeta        = 13

  ==> Algorithm <==

  SCF Algorithm Type is DF.
  DIIS enabled.
  MOM disabled.
  Fractional occupation disabled.
  Guess Type is SAD.
  Energy threshold   = 1.00e-08
  Density threshold  = 1.00e-08
  Integral threshold = 1.00e-12

  ==> Primary Basis <==

  Basis Set: AUG-CC-PVTZ
    Blend: AUG-CC-PVTZ
    Number of shells: 192
    Number of basis functions: 552
    Number of Cartesian functions: 630
    Spherical Harmonics?: true
    Max angular momentum: 3

   => Loading Basis Set <=

    Name: (AUG-CC-PVTZ AUX)
    Role: JKFIT
    Keyword: DF_BASIS_SCF
    atoms 1-2, 10-11 entry C          line   162 file /home/kchung25/anaconda3/envs/p415env/share/psi4/basis/aug-cc-pvtz-jkfit.gbs 
    atoms 3, 12      entry O          line   286 file /home/kchung25/anaconda3/envs/p415env/share/psi4/basis/aug-cc-pvtz-jkfit.gbs 
    atoms 4-9, 13-18 entry H          line    70 file /home/kchung25/anaconda3/envs/p415env/share/psi4/basis/aug-cc-pvtz-jkfit.gbs 

  ==> Integral Setup <==

  ==> DiskDFJK: Density-Fitted J/K Matrices <==

    J tasked:                  Yes
    K tasked:                  Yes
    wK tasked:                  No
    OpenMP threads:              1
    Integrals threads:           1
    Memory [MiB]:             7152
    Algorithm:                Core
    Integral Cache:           LOAD
    Schwarz Cutoff:          1E-12
    Fitting Condition:       1E-10

   => Auxiliary Basis Set <=

  Basis Set: (AUG-CC-PVTZ AUX)
    Blend: AUG-CC-PVTZ-JKFIT
    Number of shells: 348
    Number of basis functions: 1176
    Number of Cartesian functions: 1446
    Spherical Harmonics?: true
    Max angular momentum: 4

  Minimum eigenvalue in the overlap matrix is 8.5236548151E-06.
  Reciprocal condition number of the overlap matrix is 4.5712674386E-07.
    Using symmetric orthogonalization.

  ==> Pre-Iterations <==

  SCF Guess: Superposition of Atomic Densities via on-the-fly atomic UHF (no occupation information).

   -------------------------
    Irrep   Nso     Nmo    
   -------------------------
     A        552     552 
   -------------------------
    Total     552     552
   -------------------------

  ==> Iterations <==

                           Total Energy        Delta E     RMS |[F,P]|

   @DF-RHF iter SAD:  -153.43571637366523   -1.53436e+02   0.00000e+00 
   @DF-RHF iter   1:  -153.99902674148515   -5.63310e-01   9.59911e-04 DIIS/ADIIS
   @DF-RHF iter   2:  -154.11089451573361   -1.11868e-01   5.35181e-04 DIIS/ADIIS
   @DF-RHF iter   3:  -154.14386266455733   -3.29681e-02   8.47464e-05 DIIS
   @DF-RHF iter   4:  -154.14546275345197   -1.60009e-03   3.25768e-05 DIIS
   @DF-RHF iter   5:  -154.14564952454225   -1.86771e-04   5.76244e-06 DIIS
   @DF-RHF iter   6:  -154.14565912911451   -9.60457e-06   1.27716e-06 DIIS
   @DF-RHF iter   7:  -154.14565968412961   -5.55015e-07   3.92079e-07 DIIS
   @DF-RHF iter   8:  -154.14565972824093   -4.41113e-08   1.05638e-07 DIIS
   @DF-RHF iter   9:  -154.14565973249259   -4.25166e-09   2.55612e-08 DIIS
   @DF-RHF iter  10:  -154.14565973276325   -2.70660e-10   4.86864e-09 DIIS
  Energy and wave function converged.


  ==> Post-Iterations <==

    Orbital Energies [Eh]
    ---------------------

    Doubly Occupied:                                                      

       1A    -20.554597     2A    -11.273991     3A    -11.211460  
       4A     -1.357934     5A     -1.014678     6A     -0.833638  
       7A     -0.700832     8A     -0.645499     9A     -0.571966  
      10A     -0.533506    11A     -0.524432    12A     -0.489573  
      13A     -0.440697  

    Virtual:                                                              

      14A      0.025949    15A      0.032937    16A      0.036425  
      17A      0.038935    18A      0.049605    19A      0.052358  
      20A      0.053715    21A      0.063240    22A      0.068227  
      23A      0.078743    24A      0.079746    25A      0.081265  
      26A      0.104499    27A      0.112452    28A      0.114346  
      29A      0.117410    30A      0.125454    31A      0.130653  
      32A      0.131778    33A      0.136627    34A      0.140122  
      35A      0.145498    36A      0.149257    37A      0.157167  
      38A      0.164798    39A      0.175566    40A      0.177966  
      41A      0.189597    42A      0.196548    43A      0.201340  
      44A      0.210906    45A      0.223190    46A      0.229913  
      47A      0.237722    48A      0.255002    49A      0.257828  
      50A      0.265918    51A      0.270412    52A      0.279090  
      53A      0.286443    54A      0.289958    55A      0.297795  
      56A      0.310756    57A      0.312529    58A      0.318234  
      59A      0.319190    60A      0.323367    61A      0.329555  
      62A      0.334555    63A      0.337448    64A      0.347903  
      65A      0.353154    66A      0.359198    67A      0.364828  
      68A      0.365591    69A      0.372545    70A      0.376156  
      71A      0.381630    72A      0.392447    73A      0.399592  
      74A      0.404133    75A      0.407680    76A      0.414961  
      77A      0.421602    78A      0.426181    79A      0.427943  
      80A      0.437460    81A      0.442443    82A      0.447027  
      83A      0.451165    84A      0.461140    85A      0.465124  
      86A      0.473023    87A      0.479325    88A      0.481104  
      89A      0.487299    90A      0.488248    91A      0.492347  
      92A      0.497278    93A      0.501644    94A      0.510472  
      95A      0.518053    96A      0.524687    97A      0.533347  
      98A      0.538494    99A      0.542878   100A      0.548452  
     101A      0.558957   102A      0.566546   103A      0.571273  
     104A      0.576865   105A      0.581354   106A      0.587261  
     107A      0.597758   108A      0.603473   109A      0.606722  
     110A      0.623547   111A      0.636792   112A      0.642339  
     113A      0.652516   114A      0.657756   115A      0.660254  
     116A      0.665422   117A      0.668435   118A      0.680017  
     119A      0.689136   120A      0.694592   121A      0.710780  
     122A      0.718890   123A      0.724737   124A      0.726405  
     125A      0.754418   126A      0.762101   127A      0.769255  
     128A      0.793054   129A      0.799550   130A      0.808050  
     131A      0.822906   132A      0.828032   133A      0.847190  
     134A      0.856538   135A      0.858740   136A      0.880298  
     137A      0.883245   138A      0.891629   139A      0.895816  
     140A      0.907973   141A      0.916253   142A      0.926819  
     143A      0.937732   144A      0.939798   145A      0.950528  
     146A      0.958393   147A      0.960445   148A      0.969415  
     149A      0.980898   150A      0.986308   151A      0.995337  
     152A      1.002584   153A      1.008596   154A      1.018592  
     155A      1.018846   156A      1.030135   157A      1.037910  
     158A      1.046017   159A      1.054494   160A      1.059815  
     161A      1.066746   162A      1.072188   163A      1.077817  
     164A      1.084808   165A      1.096916   166A      1.101844  
     167A      1.105702   168A      1.107420   169A      1.123243  
     170A      1.126130   171A      1.127619   172A      1.132944  
     173A      1.136479   174A      1.144910   175A      1.148314  
     176A      1.158726   177A      1.162511   178A      1.168724  
     179A      1.186016   180A      1.191085   181A      1.197772  
     182A      1.207320   183A      1.213189   184A      1.218359  
     185A      1.222539   186A      1.234831   187A      1.239926  
     188A      1.247232   189A      1.260250   190A      1.265079  
     191A      1.270517   192A      1.275702   193A      1.281418  
     194A      1.301347   195A      1.310249   196A      1.313081  
     197A      1.324900   198A      1.331516   199A      1.340259  
     200A      1.345470   201A      1.357157   202A      1.368413  
     203A      1.371419   204A      1.385409   205A      1.402738  
     206A      1.407154   207A      1.413522   208A      1.420255  
     209A      1.429667   210A      1.438173   211A      1.445254  
     212A      1.458236   213A      1.462712   214A      1.477241  
     215A      1.484599   216A      1.489000   217A      1.511128  
     218A      1.516449   219A      1.530889   220A      1.536775  
     221A      1.546130   222A      1.560350   223A      1.571101  
     224A      1.580969   225A      1.588113   226A      1.595310  
     227A      1.605008   228A      1.612353   229A      1.627938  
     230A      1.629868   231A      1.641415   232A      1.666123  
     233A      1.675919   234A      1.694356   235A      1.696693  
     236A      1.705621   237A      1.713046   238A      1.720797  
     239A      1.729251   240A      1.733963   241A      1.751881  
     242A      1.767852   243A      1.779781   244A      1.781408  
     245A      1.802085   246A      1.811018   247A      1.818792  
     248A      1.834923   249A      1.840049   250A      1.850550  
     251A      1.855806   252A      1.871278   253A      1.877229  
     254A      1.893053   255A      1.901901   256A      1.905031  
     257A      1.921005   258A      1.933531   259A      1.960354  
     260A      1.973710   261A      1.982870   262A      1.996604  
     263A      2.009146   264A      2.018428   265A      2.027947  
     266A      2.035062   267A      2.051195   268A      2.057648  
     269A      2.072838   270A      2.078286   271A      2.085005  
     272A      2.110913   273A      2.114508   274A      2.122510  
     275A      2.130788   276A      2.153600   277A      2.155555  
     278A      2.173721   279A      2.183899   280A      2.191126  
     281A      2.196693   282A      2.219736   283A      2.221563  
     284A      2.248291   285A      2.258559   286A      2.260952  
     287A      2.280930   288A      2.289979   289A      2.294011  
     290A      2.320541   291A      2.332686   292A      2.345351  
     293A      2.363162   294A      2.368643   295A      2.397025  
     296A      2.425775   297A      2.439302   298A      2.449355  
     299A      2.464671   300A      2.473457   301A      2.497543  
     302A      2.513692   303A      2.532652   304A      2.558513  
     305A      2.602737   306A      2.613378   307A      2.653179  
     308A      2.667921   309A      2.696862   310A      2.704263  
     311A      2.734348   312A      2.754265   313A      2.759985  
     314A      2.766224   315A      2.783886   316A      2.795347  
     317A      2.841611   318A      2.871363   319A      2.907367  
     320A      2.911221   321A      2.935202   322A      2.947657  
     323A      2.963698   324A      2.989747   325A      3.001533  
     326A      3.019581   327A      3.031315   328A      3.084109  
     329A      3.100805   330A      3.122636   331A      3.136841  
     332A      3.182386   333A      3.199332   334A      3.228772  
     335A      3.275495   336A      3.312979   337A      3.348492  
     338A      3.381801   339A      3.397722   340A      3.446750  
     341A      3.469628   342A      3.489833   343A      3.509734  
     344A      3.533466   345A      3.579202   346A      3.584826  
     347A      3.653229   348A      3.659135   349A      3.670236  
     350A      3.680572   351A      3.703974   352A      3.706539  
     353A      3.712175   354A      3.727903   355A      3.772943  
     356A      3.795248   357A      3.805871   358A      3.829427  
     359A      3.856169   360A      3.874954   361A      3.892301  
     362A      3.911923   363A      3.958018   364A      3.961901  
     365A      3.987675   366A      4.016005   367A      4.025120  
     368A      4.044626   369A      4.068418   370A      4.081998  
     371A      4.114635   372A      4.128320   373A      4.147548  
     374A      4.157141   375A      4.172142   376A      4.178265  
     377A      4.188371   378A      4.209189   379A      4.211537  
     380A      4.227457   381A      4.240993   382A      4.257931  
     383A      4.273928   384A      4.281409   385A      4.306132  
     386A      4.320648   387A      4.359027   388A      4.371924  
     389A      4.377628   390A      4.387517   391A      4.391582  
     392A      4.417250   393A      4.449237   394A      4.474252  
     395A      4.483270   396A      4.504977   397A      4.525293  
     398A      4.527730   399A      4.547458   400A      4.571828  
     401A      4.584567   402A      4.601571   403A      4.619085  
     404A      4.635322   405A      4.647839   406A      4.649364  
     407A      4.666289   408A      4.677758   409A      4.684361  
     410A      4.716186   411A      4.728118   412A      4.751496  
     413A      4.762805   414A      4.787477   415A      4.801558  
     416A      4.805797   417A      4.840909   418A      4.857766  
     419A      4.870922   420A      4.883139   421A      4.911171  
     422A      4.913698   423A      4.935220   424A      4.939895  
     425A      4.962409   426A      4.988521   427A      5.010791  
     428A      5.030631   429A      5.034189   430A      5.050749  
     431A      5.055759   432A      5.075824   433A      5.092034  
     434A      5.110382   435A      5.144762   436A      5.162595  
     437A      5.174513   438A      5.195073   439A      5.210667  
     440A      5.222675   441A      5.227072   442A      5.251434  
     443A      5.275587   444A      5.294610   445A      5.325341  
     446A      5.332318   447A      5.347220   448A      5.387067  
     449A      5.397968   450A      5.403700   451A      5.411490  
     452A      5.450737   453A      5.456915   454A      5.468586  
     455A      5.494937   456A      5.521526   457A      5.536329  
     458A      5.548293   459A      5.557838   460A      5.571041  
     461A      5.581604   462A      5.603056   463A      5.630150  
     464A      5.633764   465A      5.661341   466A      5.679191  
     467A      5.701715   468A      5.724187   469A      5.740851  
     470A      5.750748   471A      5.770524   472A      5.775220  
     473A      5.822162   474A      5.842037   475A      5.856332  
     476A      5.905215   477A      5.922152   478A      5.973758  
     479A      6.005864   480A      6.045161   481A      6.070702  
     482A      6.089665   483A      6.121594   484A      6.137020  
     485A      6.179942   486A      6.193402   487A      6.221934  
     488A      6.242677   489A      6.268307   490A      6.289299  
     491A      6.362839   492A      6.381640   493A      6.416106  
     494A      6.488603   495A      6.565830   496A      6.722000  
     497A      6.770668   498A      6.783279   499A      6.858393  
     500A      6.879032   501A      6.882091   502A      6.974381  
     503A      7.012544   504A      7.050759   505A      7.090606  
     506A      7.144130   507A      7.180971   508A      7.207626  
     509A      7.313841   510A      7.376359   511A      7.395912  
     512A      7.453518   513A      7.562012   514A      7.581880  
     515A      7.679896   516A      7.794960   517A      7.816366  
     518A      7.842379   519A      7.873397   520A      7.887736  
     521A      7.944708   522A      7.987061   523A      8.024360  
     524A      8.078382   525A      8.177356   526A      8.212282  
     527A      8.278962   528A      8.320919   529A      8.345223  
     530A      8.424196   531A      8.464137   532A      8.646071  
     533A      8.699897   534A      8.950822   535A      9.073541  
     536A     10.056275   537A     10.152300   538A     10.327390  
     539A     10.451701   540A     10.678446   541A     10.799754  
     542A     11.137263   543A     12.137380   544A     12.496303  
     545A     13.356842   546A     14.410447   547A     16.242910  
     548A     18.128057   549A     18.554624   550A     52.909721  
     551A     54.113721   552A     68.188732  

    Final Occupation by Irrep:
              A 
    DOCC [    13 ]
    NA   [    13 ]
    NB   [    13 ]

  @DF-RHF Final Energy:  -154.14565973276325

   => Energetics <=

    Nuclear Repulsion Energy =             82.1127270384782548
    One-Electron Energy =                -372.2111662386338367
    Two-Electron Energy =                 135.9527794673923040
    Total Energy =                       -154.1456597327632494

Computation Completed


Properties will be evaluated at   0.000000,   0.000000,   0.000000 [a0]

Properties computed using the SCF density matrix


 Multipole Moments:

 ------------------------------------------------------------------------------------
     Multipole            Electronic (a.u.)      Nuclear  (a.u.)        Total (a.u.)
 ------------------------------------------------------------------------------------

 L = 1.  Multiply by 2.5417464519 to convert [e a0] to [Debye]
 Dipole X            :        -87.7732107           88.3877084            0.6144978
 Dipole Y            :         -6.1559162            6.3351708            0.1792546
 Dipole Z            :          5.4503738           -5.2783263            0.1720474
 Magnitude           :                                                    0.6628273

 ------------------------------------------------------------------------------------

*** tstop() called on moses-razer at Sat Mar  1 09:23:12 2025
Module time:
	user time   =     104.03 seconds =       1.73 minutes
	system time =       2.05 seconds =       0.03 minutes
	total time  =        107 seconds =       1.78 minutes
Total time:
	user time   =     444.00 seconds =       7.40 minutes
	system time =       6.55 seconds =       0.11 minutes
	total time  =        453 seconds =       7.55 minutes
  Constructing Basis Sets for SAPT...

   => Loading Basis Set <=

    Name: (AUG-CC-PVTZ AUX)
    Role: RIFIT
    Keyword: DF_BASIS_SAPT
    atoms 1-2, 10-11 entry C          line   148 file /home/kchung25/anaconda3/envs/p415env/share/psi4/basis/aug-cc-pvtz-ri.gbs 
    atoms 3, 12      entry O          line   264 file /home/kchung25/anaconda3/envs/p415env/share/psi4/basis/aug-cc-pvtz-ri.gbs 
    atoms 4-9, 13-18 entry H          line    30 file /home/kchung25/anaconda3/envs/p415env/share/psi4/basis/aug-cc-pvtz-ri.gbs 

   => Loading Basis Set <=

    Name: (AUG-CC-PVTZ AUX)
    Role: JKFIT
    Keyword: DF_BASIS_ELST
    atoms 1-2, 10-11 entry C          line   162 file /home/kchung25/anaconda3/envs/p415env/share/psi4/basis/aug-cc-pvtz-jkfit.gbs 
    atoms 3, 12      entry O          line   286 file /home/kchung25/anaconda3/envs/p415env/share/psi4/basis/aug-cc-pvtz-jkfit.gbs 
    atoms 4-9, 13-18 entry H          line    70 file /home/kchung25/anaconda3/envs/p415env/share/psi4/basis/aug-cc-pvtz-jkfit.gbs 


  //>>>>>>>>>>>>>>>>>>>>>>>>>>>>>>>>>>>//
  //               SAPT2+              //
  //<<<<<<<<<<<<<<<<<<<<<<<<<<<<<<<<<<<//


*** tstart() called on moses-razer
*** at Sat Mar  1 09:23:13 2025

        SAPT2+  
    Ed Hohenstein
     6 June 2009

      Orbital Information
  --------------------------
    NSO        =       552
    NMO        =       552
    NRI        =      1188
    NOCC A     =        13
    NOCC B     =        13
    FOCC A     =         0
    FOCC B     =         0
    NVIR A     =       539
    NVIR B     =       539

    Estimated memory usage: 3939.5 MB

    Natural Orbital Cutoff:   1.000E-06
    Disp(T3) Truncation:            Yes
    CCD (vv|vv) Truncation:         Yes
    MBPT T2 Truncation:             Yes

    Monomer A: 306 virtual orbitals dropped
    Monomer B: 304 virtual orbitals dropped

    Elst10,r            =    -0.015875800476 [Eh]
    Exch10 (S^2)        =     0.016440040512 [Eh]
    Exch10              =     0.016560693071 [Eh]
    Ind20,r (A<-B)      =    -0.002693373713 [Eh]
    Ind20,r (B<-A)      =    -0.004385612802 [Eh]
    Ind20,r             =    -0.007078986515 [Eh]
    Exch-Ind20,r (A<-B) =     0.001915456989 [Eh]
    Exch-Ind20,r (B<-A) =     0.002393569983 [Eh]
    Exch-Ind20,r        =     0.004309026972 [Eh]
    Disp20              =    -0.009403827837 [Eh]
    Disp20 (NO)         =    -0.008279129781 [Eh]
    Exch-Disp20         =     0.001409215043 [Eh]
    Elst12,r            =    -0.000525977523 [Eh]
    Exch11              =     0.000170097102 [Eh]
    Exch12              =     0.002733131095 [Eh]
    Ind22               =    -0.001254052445 [Eh]
    Disp21              =     0.000579370614 [Eh]
    Disp22 (SDQ)        =    -0.000091849076 [Eh]

    (i =   1 of  13)        244 seconds
    (i =   2 of  13)        486 seconds
    (i =   3 of  13)        729 seconds
    (i =   4 of  13)        975 seconds
    (i =   5 of  13)       1219 seconds
    (i =   6 of  13)       1461 seconds
    (i =   7 of  13)       1704 seconds
    (i =   8 of  13)       1947 seconds
    (i =   9 of  13)       2188 seconds
    (i =  10 of  13)       2430 seconds
    (i =  11 of  13)       2673 seconds
    (i =  12 of  13)       2915 seconds
    (i =  13 of  13)       3159 seconds

    Disp220 (T)         =    -0.000746624779 [Eh]

    (i =   1 of  13)        352 seconds
    (i =   2 of  13)        597 seconds
    (i =   3 of  13)        842 seconds
    (i =   4 of  13)       1089 seconds
    (i =   5 of  13)       1335 seconds
    (i =   6 of  13)       1582 seconds
    (i =   7 of  13)       1828 seconds
    (i =   8 of  13)       2076 seconds
    (i =   9 of  13)       2322 seconds
    (i =  10 of  13)       2568 seconds
    (i =  11 of  13)       2815 seconds
    (i =  12 of  13)       3061 seconds
    (i =  13 of  13)       3298 seconds

    Disp202 (T)         =    -0.000682626383 [Eh]

    Disp22 (T)          =    -0.001429251162 [Eh]

    Est. Disp220 (T)    =    -0.000848051796 [Eh]
    Est. Disp202 (T)    =    -0.000775359385 [Eh]

    Est. Disp22 (T)     =    -0.001623411181 [Eh]

    SAPT Results 
  --------------------------------------------------------------------------------------------------------
    Electrostatics                -16.40177800 [mEh]     -10.29227108 [kcal/mol]     -43.06286220 [kJ/mol]
      Elst10,r                    -15.87580048 [mEh]      -9.96221520 [kcal/mol]     -41.68190841 [kJ/mol]
      Elst12,r                     -0.52597752 [mEh]      -0.33005588 [kcal/mol]      -1.38095380 [kJ/mol]

    Exchange                       19.46392127 [mEh]      12.21379499 [kcal/mol]      51.10251825 [kJ/mol]
      Exch10                       16.56069307 [mEh]      10.39199179 [kcal/mol]      43.48009367 [kJ/mol]
      Exch10(S^2)                  16.44004051 [mEh]      10.31628117 [kcal/mol]      43.16332042 [kJ/mol]
      Exch11(S^2)                   0.17009710 [mEh]       0.10673754 [kcal/mol]       0.44658988 [kJ/mol]
      Exch12(S^2)                   2.73313110 [mEh]       1.71506566 [kcal/mol]       7.17583470 [kJ/mol]

    Induction                      -5.27545210 [mEh]      -3.31039617 [kcal/mol]     -13.85069759 [kJ/mol]
      Ind20,r                      -7.07898651 [mEh]      -4.44213110 [kcal/mol]     -18.58587653 [kJ/mol]
      Ind22                        -1.25405245 [mEh]      -0.78692979 [kcal/mol]      -3.29251424 [kJ/mol]
      Exch-Ind20,r                  4.30902697 [mEh]       2.70395525 [kcal/mol]      11.31334876 [kJ/mol]
      Exch-Ind22                    0.76335021 [mEh]       0.47900949 [kcal/mol]       2.00417569 [kJ/mol]
      delta HF,r (2)               -2.01479032 [mEh]      -1.26430001 [kcal/mol]      -5.28983126 [kJ/mol]

    Dispersion                     -9.13050244 [mEh]      -5.72947678 [kcal/mol]     -23.97213085 [kJ/mol]
      Disp20                       -9.40382784 [mEh]      -5.90099106 [kcal/mol]     -24.68974658 [kJ/mol]
      Disp21                        0.57937061 [mEh]       0.36356055 [kcal/mol]       1.52113734 [kJ/mol]
      Disp22 (SDQ)                 -0.09184908 [mEh]      -0.05763617 [kcal/mol]      -0.24114972 [kJ/mol]
      Disp22 (T)                   -1.42925116 [mEh]      -0.89686864 [kcal/mol]      -3.75249841 [kJ/mol]
      Est. Disp22 (T)              -1.62341118 [mEh]      -1.01870590 [kcal/mol]      -4.26226547 [kJ/mol]
      Exch-Disp20                   1.40921504 [mEh]       0.88429579 [kcal/mol]       3.69989359 [kJ/mol]

  Total HF                         -4.09985727 [mEh]      -2.57269928 [kcal/mol]     -10.76417377 [kJ/mol]
  Total SAPT0                     -12.09447006 [mEh]      -7.58939454 [kcal/mol]     -31.75402677 [kJ/mol]
  Total SAPT2                     -10.20792163 [mEh]      -6.40556753 [kcal/mol]     -26.80089454 [kJ/mol]
  Total SAPT2+                    -11.34381127 [mEh]      -7.11834904 [kcal/mol]     -29.78317239 [kJ/mol]

  Special recipe for scaled SAPT0 (see Manual):
    Electrostatics sSAPT0         -15.87580048 [mEh]      -9.96221520 [kcal/mol]     -41.68190841 [kJ/mol]
    Exchange sSAPT0                16.56069307 [mEh]      10.39199179 [kcal/mol]      43.48009367 [kJ/mol]
    Induction sSAPT0               -4.68918076 [mEh]      -2.94250535 [kcal/mol]     -12.31144240 [kJ/mol]
    Dispersion sSAPT0              -7.96335808 [mEh]      -4.99708264 [kcal/mol]     -20.90779376 [kJ/mol]
  Total sSAPT0                    -11.96764625 [mEh]      -7.50981140 [kcal/mol]     -31.42105090 [kJ/mol]
  --------------------------------------------------------------------------------------------------------

*** tstop() called on moses-razer at Sat Mar  1 11:39:07 2025
Module time:
	user time   =    8000.37 seconds =     133.34 minutes
	system time =     120.19 seconds =       2.00 minutes
	total time  =       8154 seconds =     135.90 minutes
Total time:
	user time   =    8444.73 seconds =     140.75 minutes
	system time =     126.74 seconds =       2.11 minutes
	total time  =       8608 seconds =     143.47 minutes

    Psi4 stopped on: Saturday, 01 March 2025 11:39AM
    Psi4 wall time for execution: 2:23:29.30

*** Psi4 exiting successfully. Buy a developer a beer!
