
    -----------------------------------------------------------------------
          Psi4: An Open-Source Ab Initio Electronic Structure Package
                               Psi4 1.9 release

                         Git: Rev {} zzzzzzz 


    D. G. A. Smith, L. A. Burns, A. C. Simmonett, R. M. Parrish,
    M. C. Schieber, R. Galvelis, P. Kraus, H. Kruse, R. Di Remigio,
    A. Alenaizan, A. M. James, S. Lehtola, J. P. Misiewicz, M. Scheurer,
    R. A. Shaw, J. B. Schriber, Y. Xie, Z. L. Glick, D. A. Sirianni,
    J. S. O'Brien, J. M. Waldrop, A. Kumar, E. G. Hohenstein,
    B. P. Pritchard, B. R. Brooks, H. F. Schaefer III, A. Yu. Sokolov,
    K. Patkowski, A. E. DePrince III, U. Bozkaya, R. A. King,
    F. A. Evangelista, J. M. Turney, T. D. Crawford, C. D. Sherrill,
    J. Chem. Phys. 152(18) 184108 (2020). https://doi.org/10.1063/5.0006002

                            Additional Code Authors
    E. T. Seidl, C. L. Janssen, E. F. Valeev, M. L. Leininger,
    J. F. Gonthier, R. M. Richard, H. R. McAlexander, M. Saitow, X. Wang,
    P. Verma, M. H. Lechner, A. Jiang, S. Behnle, A. G. Heide,
    M. F. Herbst, and D. L. Poole

             Previous Authors, Complete List of Code Contributors,
                       and Citations for Specific Modules
    https://github.com/psi4/psi4/blob/master/codemeta.json
    https://github.com/psi4/psi4/graphs/contributors
    http://psicode.org/psi4manual/master/introduction.html#citing-psifour

    -----------------------------------------------------------------------


    Psi4 started on: Saturday, 01 March 2025 08:25PM

    Process ID: 198437
    Host:       moses-razer
    PSIDATADIR: /home/kchung25/anaconda3/envs/psi4_19/share/psi4
    Memory:     500.0 MiB
    Threads:    1
    
  ==> Input File <==

--------------------------------------------------------------------------
MEMORY 10 GB

molecule dimer {
0 1
C    1.931029   0.578330   0.958826
C    1.965727   0.223154  -0.499988
O    1.180761  -0.944252  -0.685860
H    1.221035  -1.219217  -1.603930
H    2.525477   1.472677   1.150060
H    2.332495  -0.239373   1.560047
H    0.905552   0.764576   1.285506
H    2.996705   0.041005  -0.829297
H    1.569906   1.051912  -1.104047
--
0 1
C   -1.746207   1.121099  -0.476950
C   -2.174033  -0.252033  -0.013091
O   -1.256421  -0.835427   0.871900
H   -0.431806  -0.990078   0.386917
H   -2.499550   1.576228  -1.124257
H   -0.809659   1.064234  -1.039748
H   -1.584424   1.779019   0.380020
H   -2.353642  -0.900384  -0.885059
H   -3.125905  -0.186473   0.522681

units ang
no_reorient
no_com
symmetry c1
}

set {
basis        aug-cc-pVTZ
scf_type     df
}

energy("sapt2+")
--------------------------------------------------------------------------

  Memory set to   9.313 GiB by Python driver.

Scratch directory: /scratch/
   => Loading Basis Set <=

    Name: AUG-CC-PVTZ
    Role: ORBITAL
    Keyword: BASIS
    atoms 1-2, 10-11 entry C          line   239 file /home/kchung25/anaconda3/envs/p415env/share/psi4/basis/aug-cc-pvtz.gbs 
    atoms 3, 12      entry O          line   331 file /home/kchung25/anaconda3/envs/p415env/share/psi4/basis/aug-cc-pvtz.gbs 
    atoms 4-9, 13-18 entry H          line    40 file /home/kchung25/anaconda3/envs/p415env/share/psi4/basis/aug-cc-pvtz.gbs 

   => Loading Basis Set <=

    Name: AUG-CC-PVTZ
    Role: ORBITAL
    Keyword: BASIS
    atoms 1-2, 10-11 entry C          line   239 file /home/kchung25/anaconda3/envs/p415env/share/psi4/basis/aug-cc-pvtz.gbs 
    atoms 3, 12      entry O          line   331 file /home/kchung25/anaconda3/envs/p415env/share/psi4/basis/aug-cc-pvtz.gbs 
    atoms 4-9, 13-18 entry H          line    40 file /home/kchung25/anaconda3/envs/p415env/share/psi4/basis/aug-cc-pvtz.gbs 


  //>>>>>>>>>>>>>>>>>>>>>>>>>>>>>>>>>>>//
  //              Dimer HF             //
  //<<<<<<<<<<<<<<<<<<<<<<<<<<<<<<<<<<<//

   => Libint2 <=

    Primary   basis highest AM E, G, H:  5, 4, 3
    Auxiliary basis highest AM E, G, H:  6, 5, 4
    Onebody   basis highest AM E, G, H:  6, 5, 4
    Solid Harmonics ordering:            gaussian

*** tstart() called on moses-razer
*** at Sat Mar  1 20:25:58 2025

   => Loading Basis Set <=

    Name: AUG-CC-PVTZ
    Role: ORBITAL
    Keyword: BASIS
    atoms 1-2, 10-11 entry C          line   239 file /home/kchung25/anaconda3/envs/p415env/share/psi4/basis/aug-cc-pvtz.gbs 
    atoms 3, 12      entry O          line   331 file /home/kchung25/anaconda3/envs/p415env/share/psi4/basis/aug-cc-pvtz.gbs 
    atoms 4-9, 13-18 entry H          line    40 file /home/kchung25/anaconda3/envs/p415env/share/psi4/basis/aug-cc-pvtz.gbs 


         ---------------------------------------------------------
                                   SCF
               by Justin Turney, Rob Parrish, Andy Simmonett
                          and Daniel G. A. Smith
                              RHF Reference
                        1 Threads,   9536 MiB Core
         ---------------------------------------------------------

  ==> Geometry <==

    Molecular point group: c1
    Full point group: C1

    Geometry (in Angstrom), charge = 0, multiplicity = 1:

       Center              X                  Y                   Z               Mass       
    ------------   -----------------  -----------------  -----------------  -----------------
         C            1.931029000000     0.578330000000     0.958826000000    12.000000000000
         C            1.965727000000     0.223154000000    -0.499988000000    12.000000000000
         O            1.180761000000    -0.944252000000    -0.685860000000    15.994914619570
         H            1.221035000000    -1.219217000000    -1.603930000000     1.007825032230
         H            2.525477000000     1.472677000000     1.150060000000     1.007825032230
         H            2.332495000000    -0.239373000000     1.560047000000     1.007825032230
         H            0.905552000000     0.764576000000     1.285506000000     1.007825032230
         H            2.996705000000     0.041005000000    -0.829297000000     1.007825032230
         H            1.569906000000     1.051912000000    -1.104047000000     1.007825032230
         C           -1.746207000000     1.121099000000    -0.476950000000    12.000000000000
         C           -2.174033000000    -0.252033000000    -0.013091000000    12.000000000000
         O           -1.256421000000    -0.835427000000     0.871900000000    15.994914619570
         H           -0.431806000000    -0.990078000000     0.386917000000     1.007825032230
         H           -2.499550000000     1.576228000000    -1.124257000000     1.007825032230
         H           -0.809659000000     1.064234000000    -1.039748000000     1.007825032230
         H           -1.584424000000     1.779019000000     0.380020000000     1.007825032230
         H           -2.353642000000    -0.900384000000    -0.885059000000     1.007825032230
         H           -3.125905000000    -0.186473000000     0.522681000000     1.007825032230

  Running in c1 symmetry.

  Rotational constants: A =      0.15319  B =      0.05065  C =      0.04913 [cm^-1]
  Rotational constants: A =   4592.66231  B =   1518.30080  C =   1473.02431 [MHz]
  Nuclear repulsion =  261.558425516404668

  Charge       = 0
  Multiplicity = 1
  Electrons    = 52
  Nalpha       = 26
  Nbeta        = 26

  ==> Algorithm <==

  SCF Algorithm Type is DF.
  DIIS enabled.
  MOM disabled.
  Fractional occupation disabled.
  Guess Type is SAD.
  Energy threshold   = 1.00e-08
  Density threshold  = 1.00e-08
  Integral threshold = 1.00e-12

  ==> Primary Basis <==

  Basis Set: AUG-CC-PVTZ
    Blend: AUG-CC-PVTZ
    Number of shells: 192
    Number of basis functions: 552
    Number of Cartesian functions: 630
    Spherical Harmonics?: true
    Max angular momentum: 3

   => Loading Basis Set <=

    Name: (AUG-CC-PVTZ AUX)
    Role: JKFIT
    Keyword: DF_BASIS_SCF
    atoms 1-2, 10-11 entry C          line   162 file /home/kchung25/anaconda3/envs/p415env/share/psi4/basis/aug-cc-pvtz-jkfit.gbs 
    atoms 3, 12      entry O          line   286 file /home/kchung25/anaconda3/envs/p415env/share/psi4/basis/aug-cc-pvtz-jkfit.gbs 
    atoms 4-9, 13-18 entry H          line    70 file /home/kchung25/anaconda3/envs/p415env/share/psi4/basis/aug-cc-pvtz-jkfit.gbs 

  ==> Integral Setup <==

  ==> DiskDFJK: Density-Fitted J/K Matrices <==

    J tasked:                  Yes
    K tasked:                  Yes
    wK tasked:                  No
    OpenMP threads:              1
    Integrals threads:           1
    Memory [MiB]:             7152
    Algorithm:                Core
    Integral Cache:           SAVE
    Schwarz Cutoff:          1E-12
    Fitting Condition:       1E-10

   => Auxiliary Basis Set <=

  Basis Set: (AUG-CC-PVTZ AUX)
    Blend: AUG-CC-PVTZ-JKFIT
    Number of shells: 348
    Number of basis functions: 1176
    Number of Cartesian functions: 1446
    Spherical Harmonics?: true
    Max angular momentum: 4

  Minimum eigenvalue in the overlap matrix is 8.8715261071E-06.
  Reciprocal condition number of the overlap matrix is 4.5741013973E-07.
    Using symmetric orthogonalization.

  ==> Pre-Iterations <==

  SCF Guess: Superposition of Atomic Densities via on-the-fly atomic UHF (no occupation information).

   -------------------------
    Irrep   Nso     Nmo    
   -------------------------
     A        552     552 
   -------------------------
    Total     552     552
   -------------------------

  ==> Iterations <==

                           Total Energy        Delta E     RMS |[F,P]|

   @DF-RHF iter SAD:  -307.11865162828985   -3.07119e+02   0.00000e+00 
   @DF-RHF iter   1:  -308.01642634284087   -8.97775e-01   1.30500e-03 DIIS/ADIIS
   @DF-RHF iter   2:  -308.23562072579318   -2.19194e-01   6.77639e-04 DIIS/ADIIS
   @DF-RHF iter   3:  -308.28965729322067   -5.40366e-02   1.17444e-04 DIIS/ADIIS
   @DF-RHF iter   4:  -308.29279082745370   -3.13353e-03   4.23337e-05 DIIS
   @DF-RHF iter   5:  -308.29310644287136   -3.15615e-04   8.61353e-06 DIIS
   @DF-RHF iter   6:  -308.29312651257271   -2.00697e-05   1.99059e-06 DIIS
   @DF-RHF iter   7:  -308.29312784624824   -1.33368e-06   5.64157e-07 DIIS
   @DF-RHF iter   8:  -308.29312794239979   -9.61516e-08   1.70504e-07 DIIS
   @DF-RHF iter   9:  -308.29312795214832   -9.74853e-09   5.06279e-08 DIIS
   @DF-RHF iter  10:  -308.29312795292782   -7.79494e-10   1.85970e-08 DIIS
   @DF-RHF iter  11:  -308.29312795300166   -7.38396e-11   4.88477e-09 DIIS
  Energy and wave function converged.


  ==> Post-Iterations <==

    Orbital Energies [Eh]
    ---------------------

    Doubly Occupied:                                                      

       1A    -20.577649     2A    -20.527293     3A    -11.286724  
       4A    -11.258649     5A    -11.215662     6A    -11.207189  
       7A     -1.383393     8A     -1.338723     9A     -1.025097  
      10A     -1.000180    11A     -0.846037    12A     -0.831864  
      13A     -0.723905    14A     -0.677129    15A     -0.657837  
      16A     -0.610095    17A     -0.596792    18A     -0.586140  
      19A     -0.542025    20A     -0.535561    21A     -0.531904  
      22A     -0.514566    23A     -0.503067    24A     -0.463604  
      25A     -0.454179    26A     -0.421389  

    Virtual:                                                              

      27A      0.024038    28A      0.035248    29A      0.035841  
      30A      0.042218    31A      0.050583    32A      0.054141  
      33A      0.054504    34A      0.062864    35A      0.071405  
      36A      0.076631    37A      0.087000    38A      0.088668  
      39A      0.106457    40A      0.112714    41A      0.117359  
      42A      0.123015    43A      0.130038    44A      0.131112  
      45A      0.139589    46A      0.147197    47A      0.150309  
      48A      0.152587    49A      0.161317    50A      0.164227  
      51A      0.169370    52A      0.175073    53A      0.182048  
      54A      0.191415    55A      0.197773    56A      0.200912  
      57A      0.221348    58A      0.230679    59A      0.233343  
      60A      0.245007    61A      0.248319    62A      0.264648  
      63A      0.275953    64A      0.283855    65A      0.287223  
      66A      0.297411    67A      0.298676    68A      0.302452  
      69A      0.306919    70A      0.310795    71A      0.315934  
      72A      0.323835    73A      0.327260    74A      0.332931  
      75A      0.341501    76A      0.345096    77A      0.347986  
      78A      0.354817    79A      0.362597    80A      0.367085  
      81A      0.368807    82A      0.373057    83A      0.383124  
      84A      0.384560    85A      0.388030    86A      0.400770  
      87A      0.407309    88A      0.411983    89A      0.417964  
      90A      0.420441    91A      0.426902    92A      0.427753  
      93A      0.437718    94A      0.438221    95A      0.447864  
      96A      0.450580    97A      0.454560    98A      0.463354  
      99A      0.467164   100A      0.475132   101A      0.481448  
     102A      0.485508   103A      0.487978   104A      0.492218  
     105A      0.498527   106A      0.501986   107A      0.508980  
     108A      0.510299   109A      0.525093   110A      0.526593  
     111A      0.530622   112A      0.534036   113A      0.540595  
     114A      0.549925   115A      0.553227   116A      0.554955  
     117A      0.568328   118A      0.570795   119A      0.583743  
     120A      0.585526   121A      0.589658   122A      0.604000  
     123A      0.622901   124A      0.624918   125A      0.631856  
     126A      0.639946   127A      0.643608   128A      0.645559  
     129A      0.662317   130A      0.668458   131A      0.687849  
     132A      0.688847   133A      0.703787   134A      0.712822  
     135A      0.736897   136A      0.760001   137A      0.763462  
     138A      0.772651   139A      0.779008   140A      0.791104  
     141A      0.801870   142A      0.809827   143A      0.816390  
     144A      0.823296   145A      0.827122   146A      0.840118  
     147A      0.843014   148A      0.844658   149A      0.861699  
     150A      0.869083   151A      0.869803   152A      0.883356  
     153A      0.895218   154A      0.901982   155A      0.908154  
     156A      0.911202   157A      0.919534   158A      0.927511  
     159A      0.929523   160A      0.935709   161A      0.948144  
     162A      0.951137   163A      0.953816   164A      0.963490  
     165A      0.970988   166A      0.977504   167A      0.988519  
     168A      0.992893   169A      1.002469   170A      1.009434  
     171A      1.016243   172A      1.019349   173A      1.028061  
     174A      1.035229   175A      1.044236   176A      1.054063  
     177A      1.056631   178A      1.060663   179A      1.073775  
     180A      1.078428   181A      1.089545   182A      1.090548  
     183A      1.096813   184A      1.106123   185A      1.113423  
     186A      1.121128   187A      1.130252   188A      1.134752  
     189A      1.142280   190A      1.150073   191A      1.151376  
     192A      1.162978   193A      1.175057   194A      1.181294  
     195A      1.183585   196A      1.194561   197A      1.202352  
     198A      1.212368   199A      1.216276   200A      1.226984  
     201A      1.236816   202A      1.246625   203A      1.249151  
     204A      1.255207   205A      1.263861   206A      1.268256  
     207A      1.290044   208A      1.297027   209A      1.300193  
     210A      1.307842   211A      1.325952   212A      1.332204  
     213A      1.338526   214A      1.340891   215A      1.351124  
     216A      1.364228   217A      1.370850   218A      1.381575  
     219A      1.389252   220A      1.399171   221A      1.404286  
     222A      1.422108   223A      1.426768   224A      1.453151  
     225A      1.454687   226A      1.465994   227A      1.474573  
     228A      1.483558   229A      1.489357   230A      1.500135  
     231A      1.518463   232A      1.522192   233A      1.533335  
     234A      1.541786   235A      1.552452   236A      1.555716  
     237A      1.575277   238A      1.584203   239A      1.596079  
     240A      1.605185   241A      1.613220   242A      1.626989  
     243A      1.635401   244A      1.639899   245A      1.653144  
     246A      1.668200   247A      1.681801   248A      1.689724  
     249A      1.695577   250A      1.703916   251A      1.709508  
     252A      1.716635   253A      1.726537   254A      1.729773  
     255A      1.742310   256A      1.749349   257A      1.755772  
     258A      1.768570   259A      1.785089   260A      1.796511  
     261A      1.804226   262A      1.813867   263A      1.818952  
     264A      1.820627   265A      1.840067   266A      1.844062  
     267A      1.851270   268A      1.857186   269A      1.863385  
     270A      1.877722   271A      1.881190   272A      1.901189  
     273A      1.921752   274A      1.930886   275A      1.947809  
     276A      1.948242   277A      1.952872   278A      1.975992  
     279A      1.980244   280A      1.991050   281A      2.010936  
     282A      2.019806   283A      2.028729   284A      2.043759  
     285A      2.057242   286A      2.061142   287A      2.080380  
     288A      2.101686   289A      2.115494   290A      2.118712  
     291A      2.133830   292A      2.143222   293A      2.153085  
     294A      2.161470   295A      2.167223   296A      2.182510  
     297A      2.192625   298A      2.201926   299A      2.209052  
     300A      2.251528   301A      2.256088   302A      2.278797  
     303A      2.290650   304A      2.307147   305A      2.324608  
     306A      2.344064   307A      2.350172   308A      2.367662  
     309A      2.392549   310A      2.395889   311A      2.401854  
     312A      2.417678   313A      2.451027   314A      2.461597  
     315A      2.479862   316A      2.494268   317A      2.515466  
     318A      2.547271   319A      2.588271   320A      2.626982  
     321A      2.660294   322A      2.685968   323A      2.692653  
     324A      2.718758   325A      2.750354   326A      2.776901  
     327A      2.784090   328A      2.832443   329A      2.843906  
     330A      2.860944   331A      2.884195   332A      2.908791  
     333A      2.934528   334A      2.944099   335A      2.960127  
     336A      2.983314   337A      3.005043   338A      3.030988  
     339A      3.064478   340A      3.103315   341A      3.117766  
     342A      3.133879   343A      3.164922   344A      3.166597  
     345A      3.209874   346A      3.245738   347A      3.265117  
     348A      3.304341   349A      3.320664   350A      3.331999  
     351A      3.395895   352A      3.417907   353A      3.445627  
     354A      3.464171   355A      3.477802   356A      3.495063  
     357A      3.508929   358A      3.549640   359A      3.562182  
     360A      3.573149   361A      3.623281   362A      3.631976  
     363A      3.639471   364A      3.664505   365A      3.680419  
     366A      3.684471   367A      3.697956   368A      3.723084  
     369A      3.732719   370A      3.739995   371A      3.744708  
     372A      3.775015   373A      3.785601   374A      3.789216  
     375A      3.813013   376A      3.813639   377A      3.832011  
     378A      3.845570   379A      3.853419   380A      3.867033  
     381A      3.881026   382A      3.895272   383A      3.920236  
     384A      3.946597   385A      3.966122   386A      3.979998  
     387A      3.989353   388A      4.004069   389A      4.016218  
     390A      4.024212   391A      4.040340   392A      4.048987  
     393A      4.057834   394A      4.075929   395A      4.094749  
     396A      4.106860   397A      4.114072   398A      4.119327  
     399A      4.146071   400A      4.157171   401A      4.170056  
     402A      4.184357   403A      4.200108   404A      4.203227  
     405A      4.221545   406A      4.227107   407A      4.241068  
     408A      4.250398   409A      4.261691   410A      4.281633  
     411A      4.306641   412A      4.331229   413A      4.340685  
     414A      4.360158   415A      4.372625   416A      4.395099  
     417A      4.400100   418A      4.423895   419A      4.447426  
     420A      4.483886   421A      4.489074   422A      4.495473  
     423A      4.499408   424A      4.521004   425A      4.559920  
     426A      4.566543   427A      4.589173   428A      4.603607  
     429A      4.611121   430A      4.622974   431A      4.654284  
     432A      4.663413   433A      4.691897   434A      4.697432  
     435A      4.716228   436A      4.751872   437A      4.769186  
     438A      4.783171   439A      4.786535   440A      4.815320  
     441A      4.842686   442A      4.851202   443A      4.873826  
     444A      4.894734   445A      4.901298   446A      4.914414  
     447A      4.922181   448A      4.940007   449A      4.953015  
     450A      4.962070   451A      4.977371   452A      4.995413  
     453A      5.008857   454A      5.030007   455A      5.041057  
     456A      5.064754   457A      5.071890   458A      5.090962  
     459A      5.116426   460A      5.133326   461A      5.147857  
     462A      5.161131   463A      5.178895   464A      5.189612  
     465A      5.210111   466A      5.220243   467A      5.252132  
     468A      5.268831   469A      5.290124   470A      5.316662  
     471A      5.335238   472A      5.343999   473A      5.355376  
     474A      5.379078   475A      5.407816   476A      5.430983  
     477A      5.433265   478A      5.456562   479A      5.480210  
     480A      5.506232   481A      5.511983   482A      5.540111  
     483A      5.586656   484A      5.589700   485A      5.598300  
     486A      5.621314   487A      5.623683   488A      5.674694  
     489A      5.701758   490A      5.711476   491A      5.731469  
     492A      5.753362   493A      5.769705   494A      5.779743  
     495A      5.832077   496A      5.839760   497A      5.861674  
     498A      5.888811   499A      6.017851   500A      6.026207  
     501A      6.056740   502A      6.096581   503A      6.123447  
     504A      6.180159   505A      6.187592   506A      6.191264  
     507A      6.212083   508A      6.265829   509A      6.285363  
     510A      6.299820   511A      6.326475   512A      6.385550  
     513A      6.408991   514A      6.443235   515A      6.708687  
     516A      6.733537   517A      6.755836   518A      6.798713  
     519A      6.851939   520A      6.874476   521A      6.902197  
     522A      6.915742   523A      7.007513   524A      7.035839  
     525A      7.085604   526A      7.140321   527A      7.194356  
     528A      7.219403   529A      7.361485   530A      7.392801  
     531A      7.474288   532A      7.489269   533A      7.532648  
     534A      7.594927   535A      7.605701   536A      7.635090  
     537A      7.693566   538A      7.713024   539A      7.854853  
     540A      7.953035   541A      7.995302   542A      8.072632  
     543A      8.275714   544A      8.345232   545A      8.670282  
     546A      8.707867   547A     16.390386   548A     17.131741  
     549A     17.850038   550A     18.065146   551A     18.625771  
     552A     18.796529  

    Final Occupation by Irrep:
              A 
    DOCC [    26 ]
    NA   [    26 ]
    NB   [    26 ]

  @DF-RHF Final Energy:  -308.29312795300166

   => Energetics <=

    Nuclear Repulsion Energy =            261.5584255164046681
    One-Electron Energy =                -939.0698015138578967
    Two-Electron Energy =                 369.2182480444515704
    Total Energy =                       -308.2931279530016582

Computation Completed


Properties will be evaluated at   0.000000,   0.000000,   0.000000 [a0]

Properties computed using the SCF density matrix


 Multipole Moments:

 ------------------------------------------------------------------------------------
     Multipole            Electronic (a.u.)      Nuclear  (a.u.)        Total (a.u.)
 ------------------------------------------------------------------------------------

 L = 1.  Multiply by 2.5417464519 to convert [e a0] to [Debye]
 Dipole X            :          0.7121869           -0.0000000            0.7121869
 Dipole Y            :          0.4796129           -0.0000113            0.4796015
 Dipole Z            :         -1.1275663           -0.0000094           -1.1275758
 Magnitude           :                                                    1.4172702

 ------------------------------------------------------------------------------------

*** tstop() called on moses-razer at Sat Mar  1 20:28:55 2025
Module time:
	user time   =     172.04 seconds =       2.87 minutes
	system time =       4.33 seconds =       0.07 minutes
	total time  =        177 seconds =       2.95 minutes
Total time:
	user time   =     172.04 seconds =       2.87 minutes
	system time =       4.33 seconds =       0.07 minutes
	total time  =        177 seconds =       2.95 minutes

  //>>>>>>>>>>>>>>>>>>>>>>>>>>>>>>>>>>>//
  //            Monomer A HF           //
  //<<<<<<<<<<<<<<<<<<<<<<<<<<<<<<<<<<<//

   => Libint2 <=

    Primary   basis highest AM E, G, H:  5, 4, 3
    Auxiliary basis highest AM E, G, H:  6, 5, 4
    Onebody   basis highest AM E, G, H:  6, 5, 4
    Solid Harmonics ordering:            gaussian

*** tstart() called on moses-razer
*** at Sat Mar  1 20:28:55 2025

   => Loading Basis Set <=

    Name: AUG-CC-PVTZ
    Role: ORBITAL
    Keyword: BASIS
    atoms 1-2, 10-11 entry C          line   239 file /home/kchung25/anaconda3/envs/p415env/share/psi4/basis/aug-cc-pvtz.gbs 
    atoms 3, 12      entry O          line   331 file /home/kchung25/anaconda3/envs/p415env/share/psi4/basis/aug-cc-pvtz.gbs 
    atoms 4-9, 13-18 entry H          line    40 file /home/kchung25/anaconda3/envs/p415env/share/psi4/basis/aug-cc-pvtz.gbs 


         ---------------------------------------------------------
                                   SCF
               by Justin Turney, Rob Parrish, Andy Simmonett
                          and Daniel G. A. Smith
                              RHF Reference
                        1 Threads,   9536 MiB Core
         ---------------------------------------------------------

  ==> Geometry <==

    Molecular point group: c1
    Full point group: C1

    Geometry (in Angstrom), charge = 0, multiplicity = 1:

       Center              X                  Y                   Z               Mass       
    ------------   -----------------  -----------------  -----------------  -----------------
         C            1.931029000000     0.578330000000     0.958826000000    12.000000000000
         C            1.965727000000     0.223154000000    -0.499988000000    12.000000000000
         O            1.180761000000    -0.944252000000    -0.685860000000    15.994914619570
         H            1.221035000000    -1.219217000000    -1.603930000000     1.007825032230
         H            2.525477000000     1.472677000000     1.150060000000     1.007825032230
         H            2.332495000000    -0.239373000000     1.560047000000     1.007825032230
         H            0.905552000000     0.764576000000     1.285506000000     1.007825032230
         H            2.996705000000     0.041005000000    -0.829297000000     1.007825032230
         H            1.569906000000     1.051912000000    -1.104047000000     1.007825032230
      Gh(C)          -1.746207000000     1.121099000000    -0.476950000000    12.000000000000
      Gh(C)          -2.174033000000    -0.252033000000    -0.013091000000    12.000000000000
      Gh(O)          -1.256421000000    -0.835427000000     0.871900000000    15.994914619570
      Gh(H)          -0.431806000000    -0.990078000000     0.386917000000     1.007825032230
      Gh(H)          -2.499550000000     1.576228000000    -1.124257000000     1.007825032230
      Gh(H)          -0.809659000000     1.064234000000    -1.039748000000     1.007825032230
      Gh(H)          -1.584424000000     1.779019000000     0.380020000000     1.007825032230
      Gh(H)          -2.353642000000    -0.900384000000    -0.885059000000     1.007825032230
      Gh(H)          -3.125905000000    -0.186473000000     0.522681000000     1.007825032230

  Running in c1 symmetry.

  Rotational constants: A =      0.15319  B =      0.05065  C =      0.04913 [cm^-1]
  Rotational constants: A =   4592.66231  B =   1518.30080  C =   1473.02431 [MHz]
  Nuclear repulsion =   82.122750421783536

  Charge       = 0
  Multiplicity = 1
  Electrons    = 26
  Nalpha       = 13
  Nbeta        = 13

  ==> Algorithm <==

  SCF Algorithm Type is DF.
  DIIS enabled.
  MOM disabled.
  Fractional occupation disabled.
  Guess Type is SAD.
  Energy threshold   = 1.00e-08
  Density threshold  = 1.00e-08
  Integral threshold = 1.00e-12

  ==> Primary Basis <==

  Basis Set: AUG-CC-PVTZ
    Blend: AUG-CC-PVTZ
    Number of shells: 192
    Number of basis functions: 552
    Number of Cartesian functions: 630
    Spherical Harmonics?: true
    Max angular momentum: 3

   => Loading Basis Set <=

    Name: (AUG-CC-PVTZ AUX)
    Role: JKFIT
    Keyword: DF_BASIS_SCF
    atoms 1-2, 10-11 entry C          line   162 file /home/kchung25/anaconda3/envs/p415env/share/psi4/basis/aug-cc-pvtz-jkfit.gbs 
    atoms 3, 12      entry O          line   286 file /home/kchung25/anaconda3/envs/p415env/share/psi4/basis/aug-cc-pvtz-jkfit.gbs 
    atoms 4-9, 13-18 entry H          line    70 file /home/kchung25/anaconda3/envs/p415env/share/psi4/basis/aug-cc-pvtz-jkfit.gbs 

  ==> Integral Setup <==

  ==> DiskDFJK: Density-Fitted J/K Matrices <==

    J tasked:                  Yes
    K tasked:                  Yes
    wK tasked:                  No
    OpenMP threads:              1
    Integrals threads:           1
    Memory [MiB]:             7152
    Algorithm:                Core
    Integral Cache:           LOAD
    Schwarz Cutoff:          1E-12
    Fitting Condition:       1E-10

   => Auxiliary Basis Set <=

  Basis Set: (AUG-CC-PVTZ AUX)
    Blend: AUG-CC-PVTZ-JKFIT
    Number of shells: 348
    Number of basis functions: 1176
    Number of Cartesian functions: 1446
    Spherical Harmonics?: true
    Max angular momentum: 4

  Minimum eigenvalue in the overlap matrix is 8.8715261071E-06.
  Reciprocal condition number of the overlap matrix is 4.5741013973E-07.
    Using symmetric orthogonalization.

  ==> Pre-Iterations <==

  SCF Guess: Superposition of Atomic Densities via on-the-fly atomic UHF (no occupation information).

   -------------------------
    Irrep   Nso     Nmo    
   -------------------------
     A        552     552 
   -------------------------
    Total     552     552
   -------------------------

  ==> Iterations <==

                           Total Energy        Delta E     RMS |[F,P]|

   @DF-RHF iter SAD:  -153.43629616865115   -1.53436e+02   0.00000e+00 
   @DF-RHF iter   1:  -153.99900566770742   -5.62709e-01   9.60146e-04 DIIS/ADIIS
   @DF-RHF iter   2:  -154.11090478175106   -1.11899e-01   5.35241e-04 DIIS/ADIIS
   @DF-RHF iter   3:  -154.14388314040195   -3.29784e-02   8.47027e-05 DIIS
   @DF-RHF iter   4:  -154.14548253219519   -1.59939e-03   3.25432e-05 DIIS
   @DF-RHF iter   5:  -154.14566889987259   -1.86368e-04   5.75912e-06 DIIS
   @DF-RHF iter   6:  -154.14567849303546   -9.59316e-06   1.27711e-06 DIIS
   @DF-RHF iter   7:  -154.14567904727303   -5.54238e-07   3.92453e-07 DIIS
   @DF-RHF iter   8:  -154.14567909146263   -4.41896e-08   1.05587e-07 DIIS
   @DF-RHF iter   9:  -154.14567909572071   -4.25808e-09   2.55511e-08 DIIS
   @DF-RHF iter  10:  -154.14567909599083   -2.70120e-10   4.87045e-09 DIIS
  Energy and wave function converged.


  ==> Post-Iterations <==

    Orbital Energies [Eh]
    ---------------------

    Doubly Occupied:                                                      

       1A    -20.554547     2A    -11.274119     3A    -11.211338  
       4A     -1.358158     5A     -1.014609     6A     -0.833721  
       7A     -0.701161     8A     -0.645178     9A     -0.572193  
      10A     -0.533799    11A     -0.524012    12A     -0.489591  
      13A     -0.440487  

    Virtual:                                                              

      14A      0.023922    15A      0.033325    16A      0.036548  
      17A      0.038898    18A      0.051100    19A      0.053705  
      20A      0.053944    21A      0.061526    22A      0.070504  
      23A      0.074643    24A      0.082598    25A      0.083596  
      26A      0.103666    27A      0.108381    28A      0.113750  
      29A      0.114699    30A      0.121125    31A      0.127923  
      32A      0.133652    33A      0.137776    34A      0.140928  
      35A      0.149227    36A      0.154222    37A      0.161513  
      38A      0.166335    39A      0.172964    40A      0.174609  
      41A      0.182351    42A      0.192104    43A      0.204269  
      44A      0.212578    45A      0.219734    46A      0.223407  
      47A      0.242491    48A      0.251585    49A      0.257245  
      50A      0.270383    51A      0.273119    52A      0.281868  
      53A      0.287142    54A      0.299409    55A      0.301161  
      56A      0.305795    57A      0.309208    58A      0.313647  
      59A      0.317905    60A      0.323679    61A      0.331004  
      62A      0.336147    63A      0.342723    64A      0.345747  
      65A      0.348313    66A      0.352571    67A      0.355076  
      68A      0.365844    69A      0.370701    70A      0.372417  
      71A      0.382141    72A      0.398385    73A      0.401638  
      74A      0.403475    75A      0.409532    76A      0.415966  
      77A      0.420250    78A      0.426571    79A      0.431434  
      80A      0.438852    81A      0.441160    82A      0.444371  
      83A      0.451772    84A      0.457745    85A      0.465680  
      86A      0.470378    87A      0.477902    88A      0.480483  
      89A      0.484967    90A      0.497427    91A      0.501836  
      92A      0.510802    93A      0.512190    94A      0.517396  
      95A      0.519600    96A      0.525672    97A      0.529990  
      98A      0.543611    99A      0.545294   100A      0.548946  
     101A      0.560791   102A      0.564821   103A      0.574990  
     104A      0.580934   105A      0.589029   106A      0.595700  
     107A      0.604459   108A      0.614570   109A      0.623995  
     110A      0.626710   111A      0.636658   112A      0.643993  
     113A      0.653786   114A      0.658441   115A      0.667287  
     116A      0.674041   117A      0.679204   118A      0.682461  
     119A      0.691594   120A      0.695949   121A      0.711314  
     122A      0.725712   123A      0.735801   124A      0.743083  
     125A      0.759955   126A      0.762585   127A      0.777452  
     128A      0.802613   129A      0.809451   130A      0.824564  
     131A      0.831696   132A      0.833513   133A      0.849258  
     134A      0.849904   135A      0.856131   136A      0.870822  
     137A      0.874502   138A      0.893169   139A      0.909339  
     140A      0.910457   141A      0.917916   142A      0.929695  
     143A      0.941224   144A      0.950388   145A      0.953660  
     146A      0.964382   147A      0.971008   148A      0.979026  
     149A      0.980261   150A      0.984430   151A      0.992753  
     152A      0.998279   153A      1.011724   154A      1.015553  
     155A      1.022938   156A      1.027036   157A      1.040667  
     158A      1.047354   159A      1.061469   160A      1.068306  
     161A      1.077037   162A      1.080636   163A      1.091195  
     164A      1.092459   165A      1.095468   166A      1.102245  
     167A      1.107189   168A      1.114289   169A      1.118911  
     170A      1.121535   171A      1.126784   172A      1.137245  
     173A      1.141526   174A      1.149876   175A      1.157677  
     176A      1.167923   177A      1.174033   178A      1.180942  
     179A      1.185439   180A      1.198070   181A      1.206944  
     182A      1.217520   183A      1.223447   184A      1.226211  
     185A      1.231740   186A      1.239053   187A      1.249229  
     188A      1.252775   189A      1.274424   190A      1.275660  
     191A      1.289314   192A      1.292703   193A      1.302098  
     194A      1.306635   195A      1.315110   196A      1.316930  
     197A      1.329873   198A      1.336305   199A      1.347878  
     200A      1.350916   201A      1.366534   202A      1.382924  
     203A      1.383615   204A      1.393056   205A      1.404268  
     206A      1.410106   207A      1.421297   208A      1.426817  
     209A      1.441119   210A      1.449633   211A      1.459984  
     212A      1.471318   213A      1.473728   214A      1.486779  
     215A      1.495451   216A      1.519711   217A      1.523359  
     218A      1.525296   219A      1.545908   220A      1.554548  
     221A      1.557024   222A      1.560368   223A      1.570608  
     224A      1.583249   225A      1.591217   226A      1.604013  
     227A      1.612093   228A      1.617777   229A      1.627369  
     230A      1.642319   231A      1.660443   232A      1.665475  
     233A      1.677686   234A      1.688320   235A      1.706788  
     236A      1.718515   237A      1.725088   238A      1.731878  
     239A      1.735031   240A      1.744078   241A      1.748810  
     242A      1.769135   243A      1.771797   244A      1.778133  
     245A      1.807191   246A      1.815116   247A      1.820189  
     248A      1.839962   249A      1.851676   250A      1.862628  
     251A      1.865194   252A      1.878008   253A      1.892408  
     254A      1.899143   255A      1.914905   256A      1.933677  
     257A      1.953531   258A      1.969039   259A      1.974450  
     260A      1.985317   261A      1.992332   262A      2.001988  
     263A      2.007206   264A      2.022280   265A      2.029000  
     266A      2.043694   267A      2.051840   268A      2.060342  
     269A      2.078619   270A      2.089070   271A      2.093803  
     272A      2.109482   273A      2.111122   274A      2.136247  
     275A      2.145551   276A      2.153613   277A      2.166312  
     278A      2.171779   279A      2.182690   280A      2.202720  
     281A      2.207567   282A      2.214163   283A      2.236806  
     284A      2.256176   285A      2.265006   286A      2.271551  
     287A      2.272168   288A      2.305677   289A      2.311097  
     290A      2.343313   291A      2.354523   292A      2.365102  
     293A      2.366972   294A      2.396393   295A      2.428989  
     296A      2.433522   297A      2.455196   298A      2.468002  
     299A      2.483374   300A      2.499443   301A      2.529907  
     302A      2.549277   303A      2.557438   304A      2.576321  
     305A      2.612528   306A      2.634313   307A      2.670891  
     308A      2.683780   309A      2.698248   310A      2.713445  
     311A      2.745304   312A      2.752532   313A      2.776162  
     314A      2.799233   315A      2.803518   316A      2.821036  
     317A      2.862383   318A      2.880579   319A      2.891114  
     320A      2.916763   321A      2.925453   322A      2.948420  
     323A      2.977758   324A      2.986616   325A      2.999698  
     326A      3.017459   327A      3.039414   328A      3.071961  
     329A      3.097731   330A      3.127385   331A      3.150935  
     332A      3.169822   333A      3.194849   334A      3.228941  
     335A      3.252004   336A      3.292664   337A      3.331557  
     338A      3.393875   339A      3.423127   340A      3.457694  
     341A      3.483444   342A      3.510297   343A      3.532131  
     344A      3.536583   345A      3.581409   346A      3.595893  
     347A      3.631956   348A      3.659222   349A      3.672058  
     350A      3.686916   351A      3.694028   352A      3.730103  
     353A      3.737508   354A      3.769899   355A      3.792027  
     356A      3.814969   357A      3.830177   358A      3.836852  
     359A      3.857972   360A      3.877101   361A      3.883333  
     362A      3.913139   363A      3.961954   364A      3.993104  
     365A      4.015703   366A      4.025163   367A      4.037324  
     368A      4.062307   369A      4.082759   370A      4.089456  
     371A      4.134998   372A      4.145160   373A      4.153761  
     374A      4.162798   375A      4.173291   376A      4.189814  
     377A      4.196758   378A      4.197362   379A      4.218234  
     380A      4.231757   381A      4.239800   382A      4.268137  
     383A      4.284400   384A      4.292419   385A      4.307006  
     386A      4.329764   387A      4.347632   388A      4.372087  
     389A      4.385821   390A      4.391383   391A      4.411157  
     392A      4.447567   393A      4.465105   394A      4.474305  
     395A      4.494628   396A      4.509236   397A      4.524847  
     398A      4.539142   399A      4.554535   400A      4.567244  
     401A      4.584817   402A      4.599403   403A      4.635745  
     404A      4.643450   405A      4.659434   406A      4.668702  
     407A      4.694001   408A      4.697731   409A      4.721712  
     410A      4.730837   411A      4.742394   412A      4.759560  
     413A      4.774092   414A      4.793709   415A      4.831317  
     416A      4.837317   417A      4.855920   418A      4.861212  
     419A      4.883571   420A      4.891481   421A      4.917766  
     422A      4.933806   423A      4.940406   424A      4.944600  
     425A      4.963256   426A      4.992308   427A      4.997812  
     428A      5.029177   429A      5.043555   430A      5.059199  
     431A      5.075684   432A      5.081777   433A      5.094542  
     434A      5.120098   435A      5.140844   436A      5.162447  
     437A      5.173711   438A      5.186308   439A      5.200883  
     440A      5.236561   441A      5.257059   442A      5.263861  
     443A      5.265650   444A      5.299546   445A      5.318442  
     446A      5.338487   447A      5.358503   448A      5.365188  
     449A      5.379528   450A      5.413208   451A      5.431341  
     452A      5.432590   453A      5.451514   454A      5.476433  
     455A      5.504863   456A      5.527605   457A      5.539516  
     458A      5.556347   459A      5.565640   460A      5.580405  
     461A      5.595210   462A      5.610888   463A      5.634216  
     464A      5.658447   465A      5.675707   466A      5.679992  
     467A      5.703588   468A      5.710078   469A      5.756887  
     470A      5.761246   471A      5.803793   472A      5.831029  
     473A      5.842323   474A      5.853751   475A      5.867733  
     476A      5.899037   477A      5.932905   478A      5.977796  
     479A      6.011119   480A      6.031261   481A      6.056395  
     482A      6.096623   483A      6.125954   484A      6.161282  
     485A      6.178771   486A      6.194087   487A      6.228247  
     488A      6.255128   489A      6.283917   490A      6.300941  
     491A      6.385349   492A      6.389823   493A      6.425432  
     494A      6.486992   495A      6.541960   496A      6.755458  
     497A      6.756873   498A      6.800724   499A      6.854705  
     500A      6.878309   501A      6.905307   502A      7.003339  
     503A      7.049048   504A      7.062524   505A      7.103113  
     506A      7.134670   507A      7.193969   508A      7.220461  
     509A      7.323757   510A      7.387724   511A      7.404219  
     512A      7.445580   513A      7.568673   514A      7.602640  
     515A      7.678203   516A      7.793857   517A      7.822560  
     518A      7.858294   519A      7.880261   520A      7.902857  
     521A      7.925935   522A      7.969451   523A      8.009121  
     524A      8.096519   525A      8.181656   526A      8.239454  
     527A      8.306012   528A      8.353499   529A      8.377620  
     530A      8.432518   531A      8.465362   532A      8.673311  
     533A      8.694185   534A      8.960227   535A      9.095386  
     536A     10.024797   537A     10.145199   538A     10.326826  
     539A     10.486600   540A     10.715877   541A     10.767016  
     542A     11.127664   543A     12.125221   544A     12.511927  
     545A     13.353447   546A     14.431059   547A     16.550196  
     548A     18.067671   549A     18.674178   550A     52.964868  
     551A     54.596689   552A     68.083691  

    Final Occupation by Irrep:
              A 
    DOCC [    13 ]
    NA   [    13 ]
    NB   [    13 ]

  @DF-RHF Final Energy:  -154.14567909599083

   => Energetics <=

    Nuclear Repulsion Energy =             82.1227504217835360
    One-Electron Energy =                -372.2310286368418701
    Two-Electron Energy =                 135.9625991190675336
    Total Energy =                       -154.1456790959908290

Computation Completed


Properties will be evaluated at   0.000000,   0.000000,   0.000000 [a0]

Properties computed using the SCF density matrix


 Multipole Moments:

 ------------------------------------------------------------------------------------
     Multipole            Electronic (a.u.)      Nuclear  (a.u.)        Total (a.u.)
 ------------------------------------------------------------------------------------

 L = 1.  Multiply by 2.5417464519 to convert [e a0] to [Debye]
 Dipole X            :        -83.5092743           83.8618767            0.3526024
 Dipole Y            :          1.9728079           -1.6507362            0.3220717
 Dipole Z            :          3.8442422           -4.3000964           -0.4558541
 Magnitude           :                                                    0.6601981

 ------------------------------------------------------------------------------------

*** tstop() called on moses-razer at Sat Mar  1 20:30:35 2025
Module time:
	user time   =      98.50 seconds =       1.64 minutes
	system time =       1.39 seconds =       0.02 minutes
	total time  =        100 seconds =       1.67 minutes
Total time:
	user time   =     270.54 seconds =       4.51 minutes
	system time =       5.72 seconds =       0.10 minutes
	total time  =        277 seconds =       4.62 minutes

  //>>>>>>>>>>>>>>>>>>>>>>>>>>>>>>>>>>>//
  //            Monomer B HF           //
  //<<<<<<<<<<<<<<<<<<<<<<<<<<<<<<<<<<<//

   => Libint2 <=

    Primary   basis highest AM E, G, H:  5, 4, 3
    Auxiliary basis highest AM E, G, H:  6, 5, 4
    Onebody   basis highest AM E, G, H:  6, 5, 4
    Solid Harmonics ordering:            gaussian

*** tstart() called on moses-razer
*** at Sat Mar  1 20:30:35 2025

   => Loading Basis Set <=

    Name: AUG-CC-PVTZ
    Role: ORBITAL
    Keyword: BASIS
    atoms 1-2, 10-11 entry C          line   239 file /home/kchung25/anaconda3/envs/p415env/share/psi4/basis/aug-cc-pvtz.gbs 
    atoms 3, 12      entry O          line   331 file /home/kchung25/anaconda3/envs/p415env/share/psi4/basis/aug-cc-pvtz.gbs 
    atoms 4-9, 13-18 entry H          line    40 file /home/kchung25/anaconda3/envs/p415env/share/psi4/basis/aug-cc-pvtz.gbs 


         ---------------------------------------------------------
                                   SCF
               by Justin Turney, Rob Parrish, Andy Simmonett
                          and Daniel G. A. Smith
                              RHF Reference
                        1 Threads,   9536 MiB Core
         ---------------------------------------------------------

  ==> Geometry <==

    Molecular point group: c1
    Full point group: C1

    Geometry (in Angstrom), charge = 0, multiplicity = 1:

       Center              X                  Y                   Z               Mass       
    ------------   -----------------  -----------------  -----------------  -----------------
      Gh(C)           1.931029000000     0.578330000000     0.958826000000    12.000000000000
      Gh(C)           1.965727000000     0.223154000000    -0.499988000000    12.000000000000
      Gh(O)           1.180761000000    -0.944252000000    -0.685860000000    15.994914619570
      Gh(H)           1.221035000000    -1.219217000000    -1.603930000000     1.007825032230
      Gh(H)           2.525477000000     1.472677000000     1.150060000000     1.007825032230
      Gh(H)           2.332495000000    -0.239373000000     1.560047000000     1.007825032230
      Gh(H)           0.905552000000     0.764576000000     1.285506000000     1.007825032230
      Gh(H)           2.996705000000     0.041005000000    -0.829297000000     1.007825032230
      Gh(H)           1.569906000000     1.051912000000    -1.104047000000     1.007825032230
         C           -1.746207000000     1.121099000000    -0.476950000000    12.000000000000
         C           -2.174033000000    -0.252033000000    -0.013091000000    12.000000000000
         O           -1.256421000000    -0.835427000000     0.871900000000    15.994914619570
         H           -0.431806000000    -0.990078000000     0.386917000000     1.007825032230
         H           -2.499550000000     1.576228000000    -1.124257000000     1.007825032230
         H           -0.809659000000     1.064234000000    -1.039748000000     1.007825032230
         H           -1.584424000000     1.779019000000     0.380020000000     1.007825032230
         H           -2.353642000000    -0.900384000000    -0.885059000000     1.007825032230
         H           -3.125905000000    -0.186473000000     0.522681000000     1.007825032230

  Running in c1 symmetry.

  Rotational constants: A =      0.15319  B =      0.05065  C =      0.04913 [cm^-1]
  Rotational constants: A =   4592.66231  B =   1518.30080  C =   1473.02431 [MHz]
  Nuclear repulsion =   82.154376263842508

  Charge       = 0
  Multiplicity = 1
  Electrons    = 26
  Nalpha       = 13
  Nbeta        = 13

  ==> Algorithm <==

  SCF Algorithm Type is DF.
  DIIS enabled.
  MOM disabled.
  Fractional occupation disabled.
  Guess Type is SAD.
  Energy threshold   = 1.00e-08
  Density threshold  = 1.00e-08
  Integral threshold = 1.00e-12

  ==> Primary Basis <==

  Basis Set: AUG-CC-PVTZ
    Blend: AUG-CC-PVTZ
    Number of shells: 192
    Number of basis functions: 552
    Number of Cartesian functions: 630
    Spherical Harmonics?: true
    Max angular momentum: 3

   => Loading Basis Set <=

    Name: (AUG-CC-PVTZ AUX)
    Role: JKFIT
    Keyword: DF_BASIS_SCF
    atoms 1-2, 10-11 entry C          line   162 file /home/kchung25/anaconda3/envs/p415env/share/psi4/basis/aug-cc-pvtz-jkfit.gbs 
    atoms 3, 12      entry O          line   286 file /home/kchung25/anaconda3/envs/p415env/share/psi4/basis/aug-cc-pvtz-jkfit.gbs 
    atoms 4-9, 13-18 entry H          line    70 file /home/kchung25/anaconda3/envs/p415env/share/psi4/basis/aug-cc-pvtz-jkfit.gbs 

  ==> Integral Setup <==

  ==> DiskDFJK: Density-Fitted J/K Matrices <==

    J tasked:                  Yes
    K tasked:                  Yes
    wK tasked:                  No
    OpenMP threads:              1
    Integrals threads:           1
    Memory [MiB]:             7152
    Algorithm:                Core
    Integral Cache:           LOAD
    Schwarz Cutoff:          1E-12
    Fitting Condition:       1E-10

   => Auxiliary Basis Set <=

  Basis Set: (AUG-CC-PVTZ AUX)
    Blend: AUG-CC-PVTZ-JKFIT
    Number of shells: 348
    Number of basis functions: 1176
    Number of Cartesian functions: 1446
    Spherical Harmonics?: true
    Max angular momentum: 4

  Minimum eigenvalue in the overlap matrix is 8.8715261071E-06.
  Reciprocal condition number of the overlap matrix is 4.5741013973E-07.
    Using symmetric orthogonalization.

  ==> Pre-Iterations <==

  SCF Guess: Superposition of Atomic Densities via on-the-fly atomic UHF (no occupation information).

   -------------------------
    Irrep   Nso     Nmo    
   -------------------------
     A        552     552 
   -------------------------
    Total     552     552
   -------------------------

  ==> Iterations <==

                           Total Energy        Delta E     RMS |[F,P]|

   @DF-RHF iter SAD:  -153.45761738164504   -1.53458e+02   0.00000e+00 
   @DF-RHF iter   1:  -154.00249147796649   -5.44874e-01   9.38548e-04 DIIS/ADIIS
   @DF-RHF iter   2:  -154.11461733668267   -1.12126e-01   4.97245e-04 DIIS/ADIIS
   @DF-RHF iter   3:  -154.14290926270650   -2.82919e-02   8.38919e-05 DIIS
   @DF-RHF iter   4:  -154.14449550203463   -1.58624e-03   3.22356e-05 DIIS
   @DF-RHF iter   5:  -154.14468320739738   -1.87705e-04   6.24603e-06 DIIS
   @DF-RHF iter   6:  -154.14469376175811   -1.05544e-05   1.44715e-06 DIIS
   @DF-RHF iter   7:  -154.14469452188172   -7.60124e-07   4.17379e-07 DIIS
   @DF-RHF iter   8:  -154.14469457969210   -5.78104e-08   1.31126e-07 DIIS
   @DF-RHF iter   9:  -154.14469458617708   -6.48498e-09   3.34519e-08 DIIS
   @DF-RHF iter  10:  -154.14469458663069   -4.53610e-10   6.57057e-09 DIIS
  Energy and wave function converged.


  ==> Post-Iterations <==

    Orbital Energies [Eh]
    ---------------------

    Doubly Occupied:                                                      

       1A    -20.557512     2A    -11.273220     3A    -11.216817  
       4A     -1.364042     5A     -1.012494     6A     -0.846235  
       7A     -0.690735     8A     -0.627575     9A     -0.606466  
      10A     -0.546223    11A     -0.526554    12A     -0.477992  
      13A     -0.442434  

    Virtual:                                                              

      14A      0.020191    15A      0.033205    16A      0.035254  
      17A      0.039609    18A      0.050439    19A      0.052022  
      20A      0.053439    21A      0.061909    22A      0.070068  
      23A      0.075575    24A      0.080933    25A      0.088183  
      26A      0.088684    27A      0.106481    28A      0.112515  
      29A      0.116990    30A      0.117743    31A      0.125982  
      32A      0.128214    33A      0.139810    34A      0.144696  
      35A      0.145006    36A      0.150719    37A      0.159150  
      38A      0.164279    39A      0.167371    40A      0.174314  
      41A      0.188114    42A      0.192588    43A      0.198452  
      44A      0.210071    45A      0.215264    46A      0.221029  
      47A      0.239650    48A      0.246612    49A      0.250442  
      50A      0.266400    51A      0.271046    52A      0.283222  
      53A      0.288747    54A      0.291166    55A      0.295172  
      56A      0.298136    57A      0.308438    58A      0.316269  
      59A      0.319355    60A      0.323894    61A      0.325954  
      62A      0.328217    63A      0.338179    64A      0.342692  
      65A      0.346998    66A      0.356253    67A      0.358610  
      68A      0.364872    69A      0.369010    70A      0.370035  
      71A      0.374938    72A      0.380286    73A      0.388445  
      74A      0.395221    75A      0.406337    76A      0.410632  
      77A      0.418376    78A      0.423623    79A      0.428579  
      80A      0.436102    81A      0.438897    82A      0.444586  
      83A      0.449755    84A      0.455837    85A      0.461114  
      86A      0.473727    87A      0.476021    88A      0.477475  
      89A      0.480439    90A      0.489803    91A      0.491749  
      92A      0.496190    93A      0.507324    94A      0.509178  
      95A      0.512411    96A      0.522514    97A      0.533877  
      98A      0.537012    99A      0.545132   100A      0.556501  
     101A      0.559874   102A      0.566526   103A      0.573058  
     104A      0.584195   105A      0.588277   106A      0.595508  
     107A      0.609801   108A      0.616797   109A      0.619281  
     110A      0.625575   111A      0.627632   112A      0.641971  
     113A      0.648796   114A      0.655227   115A      0.660580  
     116A      0.665022   117A      0.669264   118A      0.679024  
     119A      0.683708   120A      0.694960   121A      0.700305  
     122A      0.712314   123A      0.722814   124A      0.744423  
     125A      0.757676   126A      0.766772   127A      0.775319  
     128A      0.783990   129A      0.794827   130A      0.796201  
     131A      0.817462   132A      0.827315   133A      0.836811  
     134A      0.843957   135A      0.853025   136A      0.859223  
     137A      0.865961   138A      0.873620   139A      0.892375  
     140A      0.898949   141A      0.914429   142A      0.921588  
     143A      0.922623   144A      0.933333   145A      0.946157  
     146A      0.951894   147A      0.958518   148A      0.969193  
     149A      0.970884   150A      0.990246   151A      0.992518  
     152A      1.005847   153A      1.012506   154A      1.021084  
     155A      1.025293   156A      1.026483   157A      1.038223  
     158A      1.040462   159A      1.053875   160A      1.059621  
     161A      1.064555   162A      1.078910   163A      1.084254  
     164A      1.086023   165A      1.093327   166A      1.098496  
     167A      1.103296   168A      1.112359   169A      1.113851  
     170A      1.123860   171A      1.135018   172A      1.139525  
     173A      1.143572   174A      1.155611   175A      1.163418  
     176A      1.172390   177A      1.175791   178A      1.178044  
     179A      1.190440   180A      1.191274   181A      1.207444  
     182A      1.211467   183A      1.212326   184A      1.225532  
     185A      1.232482   186A      1.243075   187A      1.247242  
     188A      1.255079   189A      1.265523   190A      1.268743  
     191A      1.275108   192A      1.282667   193A      1.284991  
     194A      1.296549   195A      1.305238   196A      1.316298  
     197A      1.329341   198A      1.337293   199A      1.346507  
     200A      1.353742   201A      1.359928   202A      1.367303  
     203A      1.383970   204A      1.385675   205A      1.389080  
     206A      1.393036   207A      1.407200   208A      1.416910  
     209A      1.424140   210A      1.431660   211A      1.446923  
     212A      1.465615   213A      1.468155   214A      1.476437  
     215A      1.482075   216A      1.496256   217A      1.505097  
     218A      1.511202   219A      1.519033   220A      1.527741  
     221A      1.544415   222A      1.545904   223A      1.560481  
     224A      1.573623   225A      1.586959   226A      1.593448  
     227A      1.600495   228A      1.612040   229A      1.622623  
     230A      1.634221   231A      1.646611   232A      1.653116  
     233A      1.664267   234A      1.674934   235A      1.676472  
     236A      1.682138   237A      1.702419   238A      1.711138  
     239A      1.726584   240A      1.743432   241A      1.748804  
     242A      1.762956   243A      1.772141   244A      1.786109  
     245A      1.792830   246A      1.808935   247A      1.828800  
     248A      1.833874   249A      1.836943   250A      1.845895  
     251A      1.852312   252A      1.873008   253A      1.882403  
     254A      1.895102   255A      1.898600   256A      1.919047  
     257A      1.931117   258A      1.942379   259A      1.943773  
     260A      1.969428   261A      1.976616   262A      1.986973  
     263A      1.994498   264A      2.003755   265A      2.020176  
     266A      2.021915   267A      2.031792   268A      2.035651  
     269A      2.059574   270A      2.071928   271A      2.083614  
     272A      2.112748   273A      2.118501   274A      2.128569  
     275A      2.145453   276A      2.147563   277A      2.158911  
     278A      2.168517   279A      2.174465   280A      2.193079  
     281A      2.206163   282A      2.217009   283A      2.237260  
     284A      2.251175   285A      2.260383   286A      2.269594  
     287A      2.277969   288A      2.290571   289A      2.312191  
     290A      2.320290   291A      2.339627   292A      2.352433  
     293A      2.376181   294A      2.393428   295A      2.398926  
     296A      2.419115   297A      2.439038   298A      2.452993  
     299A      2.466032   300A      2.466455   301A      2.526297  
     302A      2.548873   303A      2.550630   304A      2.594329  
     305A      2.610233   306A      2.623854   307A      2.634214  
     308A      2.675335   309A      2.718073   310A      2.723937  
     311A      2.732075   312A      2.748297   313A      2.761723  
     314A      2.782533   315A      2.798535   316A      2.813513  
     317A      2.834014   318A      2.842921   319A      2.870040  
     320A      2.889021   321A      2.916041   322A      2.939544  
     323A      2.957314   324A      2.983376   325A      3.003368  
     326A      3.028926   327A      3.056969   328A      3.088202  
     329A      3.123519   330A      3.140469   331A      3.170501  
     332A      3.194971   333A      3.213185   334A      3.232057  
     335A      3.280147   336A      3.308890   337A      3.324627  
     338A      3.351276   339A      3.379366   340A      3.423578  
     341A      3.438715   342A      3.451447   343A      3.483200  
     344A      3.528083   345A      3.540124   346A      3.563732  
     347A      3.601699   348A      3.606835   349A      3.637398  
     350A      3.650093   351A      3.671015   352A      3.680190  
     353A      3.723088   354A      3.741056   355A      3.758865  
     356A      3.761099   357A      3.785937   358A      3.828534  
     359A      3.844023   360A      3.854063   361A      3.880024  
     362A      3.908980   363A      3.913434   364A      3.966321  
     365A      3.976591   366A      4.004691   367A      4.025795  
     368A      4.030270   369A      4.072375   370A      4.089646  
     371A      4.109243   372A      4.128206   373A      4.144511  
     374A      4.156444   375A      4.161772   376A      4.165903  
     377A      4.195526   378A      4.203729   379A      4.214456  
     380A      4.220677   381A      4.247109   382A      4.258656  
     383A      4.269192   384A      4.284863   385A      4.300619  
     386A      4.339519   387A      4.346551   388A      4.363279  
     389A      4.378835   390A      4.399300   391A      4.419476  
     392A      4.428827   393A      4.464933   394A      4.478522  
     395A      4.485190   396A      4.497250   397A      4.510234  
     398A      4.534267   399A      4.545557   400A      4.560907  
     401A      4.579460   402A      4.585654   403A      4.617049  
     404A      4.650211   405A      4.651784   406A      4.670447  
     407A      4.679978   408A      4.697421   409A      4.711467  
     410A      4.722951   411A      4.739077   412A      4.748661  
     413A      4.765655   414A      4.788748   415A      4.804394  
     416A      4.832074   417A      4.855484   418A      4.862253  
     419A      4.878693   420A      4.893138   421A      4.901728  
     422A      4.915789   423A      4.932294   424A      4.956467  
     425A      4.963442   426A      4.971384   427A      4.973694  
     428A      5.013089   429A      5.015876   430A      5.036061  
     431A      5.046988   432A      5.054930   433A      5.076463  
     434A      5.091061   435A      5.104592   436A      5.119999  
     437A      5.147671   438A      5.172566   439A      5.179953  
     440A      5.212083   441A      5.217572   442A      5.244908  
     443A      5.263750   444A      5.285713   445A      5.316832  
     446A      5.331040   447A      5.347005   448A      5.374078  
     449A      5.391983   450A      5.404793   451A      5.413460  
     452A      5.431679   453A      5.448002   454A      5.460050  
     455A      5.493208   456A      5.532455   457A      5.535716  
     458A      5.547396   459A      5.582420   460A      5.591893  
     461A      5.602134   462A      5.604257   463A      5.616397  
     464A      5.640582   465A      5.652687   466A      5.687443  
     467A      5.698233   468A      5.709392   469A      5.716836  
     470A      5.734178   471A      5.745374   472A      5.796917  
     473A      5.826884   474A      5.835949   475A      5.870396  
     476A      5.919765   477A      5.956982   478A      5.992630  
     479A      6.011465   480A      6.020700   481A      6.075084  
     482A      6.091128   483A      6.152437   484A      6.176979  
     485A      6.180888   486A      6.196337   487A      6.236194  
     488A      6.256868   489A      6.288665   490A      6.297525  
     491A      6.313756   492A      6.339037   493A      6.418629  
     494A      6.467447   495A      6.559391   496A      6.713156  
     497A      6.786471   498A      6.829035   499A      6.854725  
     500A      6.869515   501A      6.893579   502A      6.942581  
     503A      7.003283   504A      7.020331   505A      7.052054  
     506A      7.126008   507A      7.134059   508A      7.196436  
     509A      7.222125   510A      7.310470   511A      7.418413  
     512A      7.466394   513A      7.577708   514A      7.588100  
     515A      7.671148   516A      7.777564   517A      7.850242  
     518A      7.866200   519A      7.884349   520A      7.911412  
     521A      7.964223   522A      8.013587   523A      8.038057  
     524A      8.073538   525A      8.145354   526A      8.176692  
     527A      8.266889   528A      8.305340   529A      8.327180  
     530A      8.383157   531A      8.488115   532A      8.586416  
     533A      8.720261   534A      8.899970   535A      9.064593  
     536A     10.042595   537A     10.124382   538A     10.365767  
     539A     10.438529   540A     10.457264   541A     10.824756  
     542A     11.071573   543A     12.025662   544A     12.568260  
     545A     13.295849   546A     14.140526   547A     17.023705  
     548A     17.852491   549A     18.730437   550A     53.155899  
     551A     54.557166   552A     67.210106  

    Final Occupation by Irrep:
              A 
    DOCC [    13 ]
    NA   [    13 ]
    NB   [    13 ]

  @DF-RHF Final Energy:  -154.14469458663069

   => Energetics <=

    Nuclear Repulsion Energy =             82.1543762638425079
    One-Electron Energy =                -372.2215393976179030
    Two-Electron Energy =                 135.9224685471447174
    Total Energy =                       -154.1446945866306919

Computation Completed


Properties will be evaluated at   0.000000,   0.000000,   0.000000 [a0]

Properties computed using the SCF density matrix


 Multipole Moments:

 ------------------------------------------------------------------------------------
     Multipole            Electronic (a.u.)      Nuclear  (a.u.)        Total (a.u.)
 ------------------------------------------------------------------------------------

 L = 1.  Multiply by 2.5417464519 to convert [e a0] to [Debye]
 Dipole X            :         83.9702159          -83.8618767            0.1083392
 Dipole Y            :         -1.4624038            1.6507249            0.1883211
 Dipole Z            :         -4.9634885            4.3000869           -0.6634016
 Magnitude           :                                                    0.6980715

 ------------------------------------------------------------------------------------

*** tstop() called on moses-razer at Sat Mar  1 20:32:14 2025
Module time:
	user time   =      97.39 seconds =       1.62 minutes
	system time =       1.42 seconds =       0.02 minutes
	total time  =         99 seconds =       1.65 minutes
Total time:
	user time   =     367.94 seconds =       6.13 minutes
	system time =       7.14 seconds =       0.12 minutes
	total time  =        376 seconds =       6.27 minutes
  Constructing Basis Sets for SAPT...

   => Loading Basis Set <=

    Name: (AUG-CC-PVTZ AUX)
    Role: RIFIT
    Keyword: DF_BASIS_SAPT
    atoms 1-2, 10-11 entry C          line   148 file /home/kchung25/anaconda3/envs/p415env/share/psi4/basis/aug-cc-pvtz-ri.gbs 
    atoms 3, 12      entry O          line   264 file /home/kchung25/anaconda3/envs/p415env/share/psi4/basis/aug-cc-pvtz-ri.gbs 
    atoms 4-9, 13-18 entry H          line    30 file /home/kchung25/anaconda3/envs/p415env/share/psi4/basis/aug-cc-pvtz-ri.gbs 

   => Loading Basis Set <=

    Name: (AUG-CC-PVTZ AUX)
    Role: JKFIT
    Keyword: DF_BASIS_ELST
    atoms 1-2, 10-11 entry C          line   162 file /home/kchung25/anaconda3/envs/p415env/share/psi4/basis/aug-cc-pvtz-jkfit.gbs 
    atoms 3, 12      entry O          line   286 file /home/kchung25/anaconda3/envs/p415env/share/psi4/basis/aug-cc-pvtz-jkfit.gbs 
    atoms 4-9, 13-18 entry H          line    70 file /home/kchung25/anaconda3/envs/p415env/share/psi4/basis/aug-cc-pvtz-jkfit.gbs 


  //>>>>>>>>>>>>>>>>>>>>>>>>>>>>>>>>>>>//
  //               SAPT2+              //
  //<<<<<<<<<<<<<<<<<<<<<<<<<<<<<<<<<<<//


*** tstart() called on moses-razer
*** at Sat Mar  1 20:32:14 2025

        SAPT2+  
    Ed Hohenstein
     6 June 2009

      Orbital Information
  --------------------------
    NSO        =       552
    NMO        =       552
    NRI        =      1188
    NOCC A     =        13
    NOCC B     =        13
    FOCC A     =         0
    FOCC B     =         0
    NVIR A     =       539
    NVIR B     =       539

    Estimated memory usage: 3939.5 MB

    Natural Orbital Cutoff:   1.000E-06
    Disp(T3) Truncation:            Yes
    CCD (vv|vv) Truncation:         Yes
    MBPT T2 Truncation:             Yes

    Monomer A: 303 virtual orbitals dropped
    Monomer B: 306 virtual orbitals dropped

    Elst10,r            =    -0.015033774058 [Eh]
    Exch10 (S^2)        =     0.016802407503 [Eh]
    Exch10              =     0.016925065391 [Eh]
    Ind20,r (A<-B)      =    -0.004090362781 [Eh]
    Ind20,r (B<-A)      =    -0.003026189223 [Eh]
    Ind20,r             =    -0.007116552004 [Eh]
    Exch-Ind20,r (A<-B) =     0.002194512051 [Eh]
    Exch-Ind20,r (B<-A) =     0.002272795712 [Eh]
    Exch-Ind20,r        =     0.004467307763 [Eh]
    Disp20              =    -0.010245073107 [Eh]
    Disp20 (NO)         =    -0.009042609039 [Eh]
    Exch-Disp20         =     0.001504646858 [Eh]
    Elst12,r            =    -0.000642722482 [Eh]
    Exch11              =     0.000199788035 [Eh]
    Exch12              =     0.002721152020 [Eh]
    Ind22               =    -0.001277992654 [Eh]
    Disp21              =     0.000654029684 [Eh]
    Disp22 (SDQ)        =    -0.000058452478 [Eh]

    (i =   1 of  13)        280 seconds
    (i =   2 of  13)        528 seconds
    (i =   3 of  13)        774 seconds
    (i =   4 of  13)       1020 seconds
    (i =   5 of  13)       1266 seconds
    (i =   6 of  13)       1512 seconds
    (i =   7 of  13)       1776 seconds
    (i =   8 of  13)       2021 seconds
    (i =   9 of  13)       2315 seconds
    (i =  10 of  13)       2625 seconds
    (i =  11 of  13)       2901 seconds
    (i =  12 of  13)       3157 seconds
    (i =  13 of  13)       3418 seconds

    Disp220 (T)         =    -0.000746393155 [Eh]

    (i =   1 of  13)        252 seconds
    (i =   2 of  13)        499 seconds
    (i =   3 of  13)        744 seconds
    (i =   4 of  13)       1009 seconds
    (i =   5 of  13)       1280 seconds
    (i =   6 of  13)       1524 seconds
    (i =   7 of  13)       1767 seconds
    (i =   8 of  13)       2011 seconds
    (i =   9 of  13)       2254 seconds
    (i =  10 of  13)       2498 seconds
    (i =  11 of  13)       2741 seconds
    (i =  12 of  13)       2984 seconds
    (i =  13 of  13)       3227 seconds

    Disp202 (T)         =    -0.000796063469 [Eh]

    Disp22 (T)          =    -0.001542456624 [Eh]

    Est. Disp220 (T)    =    -0.000845646694 [Eh]
    Est. Disp202 (T)    =    -0.000901922045 [Eh]

    Est. Disp22 (T)     =    -0.001747568739 [Eh]

    SAPT Results 
  --------------------------------------------------------------------------------------------------------
    Electrostatics                -15.67649654 [mEh]      -9.83715009 [kcal/mol]     -41.15863600 [kJ/mol]
      Elst10,r                    -15.03377406 [mEh]      -9.43383565 [kcal/mol]     -39.47116835 [kJ/mol]
      Elst12,r                     -0.64272248 [mEh]      -0.40331445 [kcal/mol]      -1.68746765 [kJ/mol]

    Exchange                       19.84600545 [mEh]      12.45355643 [kcal/mol]      52.10568012 [kJ/mol]
      Exch10                       16.92506539 [mEh]      10.62063888 [kcal/mol]      44.43675306 [kJ/mol]
      Exch10(S^2)                  16.80240750 [mEh]      10.54366989 [kcal/mol]      44.11471482 [kJ/mol]
      Exch11(S^2)                   0.19978804 [mEh]       0.12536888 [kcal/mol]       0.52454341 [kJ/mol]
      Exch12(S^2)                   2.72115202 [mEh]       1.70754867 [kcal/mol]       7.14438365 [kJ/mol]

    Induction                      -5.12131383 [mEh]      -3.21367295 [kcal/mol]     -13.44600761 [kJ/mol]
      Ind20,r                      -7.11655200 [mEh]      -4.46570380 [kcal/mol]     -18.68450471 [kJ/mol]
      Ind22                        -1.27799265 [mEh]      -0.80195250 [kcal/mol]      -3.35536925 [kJ/mol]
      Exch-Ind20,r                  4.46730776 [mEh]       2.80327794 [kcal/mol]      11.72891492 [kJ/mol]
      Exch-Ind22                    0.80224054 [mEh]       0.50341354 [kcal/mol]       2.10628224 [kJ/mol]
      delta HF,r (2)               -1.99631747 [mEh]      -1.25270813 [kcal/mol]      -5.24133080 [kJ/mol]

    Dispersion                     -9.89241778 [mEh]      -6.20758588 [kcal/mol]     -25.97253931 [kJ/mol]
      Disp20                      -10.24507311 [mEh]      -6.42888043 [kcal/mol]     -26.89843574 [kJ/mol]
      Disp21                        0.65402968 [mEh]       0.41040982 [kcal/mol]       1.71715470 [kJ/mol]
      Disp22 (SDQ)                 -0.05845248 [mEh]      -0.03667948 [kcal/mol]      -0.15346696 [kJ/mol]
      Disp22 (T)                   -1.54245662 [mEh]      -0.96790614 [kcal/mol]      -4.04971931 [kJ/mol]
      Est. Disp22 (T)              -1.74756874 [mEh]      -1.09661594 [kcal/mol]      -4.58824109 [kJ/mol]
      Exch-Disp20                   1.50464686 [mEh]       0.94418016 [kcal/mol]       3.95044978 [kJ/mol]

  Total HF                         -2.75427038 [mEh]      -1.72833076 [kcal/mol]      -7.23133589 [kJ/mol]
  Total SAPT0                     -11.49469663 [mEh]      -7.21303103 [kcal/mol]     -30.17932184 [kJ/mol]
  Total SAPT2                      -9.69223117 [mEh]      -6.08196688 [kcal/mol]     -25.44694944 [kJ/mol]
  Total SAPT2+                    -10.84422270 [mEh]      -6.80485248 [kcal/mol]     -28.47150279 [kJ/mol]

  Special recipe for scaled SAPT0 (see Manual):
    Electrostatics sSAPT0         -15.03377406 [mEh]      -9.43383565 [kcal/mol]     -39.47116835 [kJ/mol]
    Exchange sSAPT0                16.92506539 [mEh]      10.62063888 [kcal/mol]      44.43675306 [kJ/mol]
    Induction sSAPT0               -4.54701149 [mEh]      -2.85329279 [kcal/mol]     -11.93817703 [kJ/mol]
    Dispersion sSAPT0              -8.70723326 [mEh]      -5.46387136 [kcal/mol]     -22.86083778 [kJ/mol]
  Total sSAPT0                    -11.36295342 [mEh]      -7.13036092 [kcal/mol]     -29.83343010 [kJ/mol]
  --------------------------------------------------------------------------------------------------------

*** tstop() called on moses-razer at Sat Mar  1 22:58:23 2025
Module time:
	user time   =    8643.50 seconds =     144.06 minutes
	system time =     114.96 seconds =       1.92 minutes
	total time  =       8769 seconds =     146.15 minutes
Total time:
	user time   =    9011.65 seconds =     150.19 minutes
	system time =     122.10 seconds =       2.04 minutes
	total time  =       9145 seconds =     152.42 minutes

    Psi4 stopped on: Saturday, 01 March 2025 10:58PM
    Psi4 wall time for execution: 2:32:26.00

*** Psi4 exiting successfully. Buy a developer a beer!
