
    -----------------------------------------------------------------------
          Psi4: An Open-Source Ab Initio Electronic Structure Package
                               Psi4 1.9 release

                         Git: Rev {} zzzzzzz 


    D. G. A. Smith, L. A. Burns, A. C. Simmonett, R. M. Parrish,
    M. C. Schieber, R. Galvelis, P. Kraus, H. Kruse, R. Di Remigio,
    A. Alenaizan, A. M. James, S. Lehtola, J. P. Misiewicz, M. Scheurer,
    R. A. Shaw, J. B. Schriber, Y. Xie, Z. L. Glick, D. A. Sirianni,
    J. S. O'Brien, J. M. Waldrop, A. Kumar, E. G. Hohenstein,
    B. P. Pritchard, B. R. Brooks, H. F. Schaefer III, A. Yu. Sokolov,
    K. Patkowski, A. E. DePrince III, U. Bozkaya, R. A. King,
    F. A. Evangelista, J. M. Turney, T. D. Crawford, C. D. Sherrill,
    J. Chem. Phys. 152(18) 184108 (2020). https://doi.org/10.1063/5.0006002

                            Additional Code Authors
    E. T. Seidl, C. L. Janssen, E. F. Valeev, M. L. Leininger,
    J. F. Gonthier, R. M. Richard, H. R. McAlexander, M. Saitow, X. Wang,
    P. Verma, M. H. Lechner, A. Jiang, S. Behnle, A. G. Heide,
    M. F. Herbst, and D. L. Poole

             Previous Authors, Complete List of Code Contributors,
                       and Citations for Specific Modules
    https://github.com/psi4/psi4/blob/master/codemeta.json
    https://github.com/psi4/psi4/graphs/contributors
    http://psicode.org/psi4manual/master/introduction.html#citing-psifour

    -----------------------------------------------------------------------


    Psi4 started on: Sunday, 02 March 2025 04:13AM

    Process ID: 206859
    Host:       moses-razer
    PSIDATADIR: /home/kchung25/anaconda3/envs/psi4_19/share/psi4
    Memory:     500.0 MiB
    Threads:    1
    
  ==> Input File <==

--------------------------------------------------------------------------
MEMORY 10 GB

molecule dimer {
0 1
C   -2.349038  -1.157925   0.034796
C   -2.056539   0.254134   0.474099
O   -1.466127   1.027122  -0.547162
H   -2.044202   1.012050  -1.314173
H   -2.772715  -1.745591   0.851689
H   -1.437215  -1.650556  -0.309185
H   -3.070166  -1.168403  -0.788025
H   -1.338097   0.256338   1.299576
H   -2.969983   0.735774   0.851362
--
0 1
C    1.812643   1.175608   0.267567
C    1.500073  -0.258318  -0.073084
O    2.656582  -1.052379  -0.216325
H    3.191286  -0.947763   0.574607
H    0.896190   1.767216   0.310822
H    2.472721   1.612217  -0.484809
H    2.313676   1.247640   1.238406
H    0.969069  -0.311788  -1.026278
H    0.822962  -0.686080   0.683636

units ang
no_reorient
no_com
symmetry c1
}

set {
basis        aug-cc-pVTZ
scf_type     df
}

energy("sapt2+")
--------------------------------------------------------------------------

  Memory set to   9.313 GiB by Python driver.

Scratch directory: /scratch/
   => Loading Basis Set <=

    Name: AUG-CC-PVTZ
    Role: ORBITAL
    Keyword: BASIS
    atoms 1-2, 10-11 entry C          line   239 file /home/kchung25/anaconda3/envs/p415env/share/psi4/basis/aug-cc-pvtz.gbs 
    atoms 3, 12      entry O          line   331 file /home/kchung25/anaconda3/envs/p415env/share/psi4/basis/aug-cc-pvtz.gbs 
    atoms 4-9, 13-18 entry H          line    40 file /home/kchung25/anaconda3/envs/p415env/share/psi4/basis/aug-cc-pvtz.gbs 

   => Loading Basis Set <=

    Name: AUG-CC-PVTZ
    Role: ORBITAL
    Keyword: BASIS
    atoms 1-2, 10-11 entry C          line   239 file /home/kchung25/anaconda3/envs/p415env/share/psi4/basis/aug-cc-pvtz.gbs 
    atoms 3, 12      entry O          line   331 file /home/kchung25/anaconda3/envs/p415env/share/psi4/basis/aug-cc-pvtz.gbs 
    atoms 4-9, 13-18 entry H          line    40 file /home/kchung25/anaconda3/envs/p415env/share/psi4/basis/aug-cc-pvtz.gbs 


  //>>>>>>>>>>>>>>>>>>>>>>>>>>>>>>>>>>>//
  //              Dimer HF             //
  //<<<<<<<<<<<<<<<<<<<<<<<<<<<<<<<<<<<//

   => Libint2 <=

    Primary   basis highest AM E, G, H:  5, 4, 3
    Auxiliary basis highest AM E, G, H:  6, 5, 4
    Onebody   basis highest AM E, G, H:  6, 5, 4
    Solid Harmonics ordering:            gaussian

*** tstart() called on moses-razer
*** at Sun Mar  2 04:13:19 2025

   => Loading Basis Set <=

    Name: AUG-CC-PVTZ
    Role: ORBITAL
    Keyword: BASIS
    atoms 1-2, 10-11 entry C          line   239 file /home/kchung25/anaconda3/envs/p415env/share/psi4/basis/aug-cc-pvtz.gbs 
    atoms 3, 12      entry O          line   331 file /home/kchung25/anaconda3/envs/p415env/share/psi4/basis/aug-cc-pvtz.gbs 
    atoms 4-9, 13-18 entry H          line    40 file /home/kchung25/anaconda3/envs/p415env/share/psi4/basis/aug-cc-pvtz.gbs 


         ---------------------------------------------------------
                                   SCF
               by Justin Turney, Rob Parrish, Andy Simmonett
                          and Daniel G. A. Smith
                              RHF Reference
                        1 Threads,   9536 MiB Core
         ---------------------------------------------------------

  ==> Geometry <==

    Molecular point group: c1
    Full point group: C1

    Geometry (in Angstrom), charge = 0, multiplicity = 1:

       Center              X                  Y                   Z               Mass       
    ------------   -----------------  -----------------  -----------------  -----------------
         C           -2.349038000000    -1.157925000000     0.034796000000    12.000000000000
         C           -2.056539000000     0.254134000000     0.474099000000    12.000000000000
         O           -1.466127000000     1.027122000000    -0.547162000000    15.994914619570
         H           -2.044202000000     1.012050000000    -1.314173000000     1.007825032230
         H           -2.772715000000    -1.745591000000     0.851689000000     1.007825032230
         H           -1.437215000000    -1.650556000000    -0.309185000000     1.007825032230
         H           -3.070166000000    -1.168403000000    -0.788025000000     1.007825032230
         H           -1.338097000000     0.256338000000     1.299576000000     1.007825032230
         H           -2.969983000000     0.735774000000     0.851362000000     1.007825032230
         C            1.812643000000     1.175608000000     0.267567000000    12.000000000000
         C            1.500073000000    -0.258318000000    -0.073084000000    12.000000000000
         O            2.656582000000    -1.052379000000    -0.216325000000    15.994914619570
         H            3.191286000000    -0.947763000000     0.574607000000     1.007825032230
         H            0.896190000000     1.767216000000     0.310822000000     1.007825032230
         H            2.472721000000     1.612217000000    -0.484809000000     1.007825032230
         H            2.313676000000     1.247640000000     1.238406000000     1.007825032230
         H            0.969069000000    -0.311788000000    -1.026278000000     1.007825032230
         H            0.822962000000    -0.686080000000     0.683636000000     1.007825032230

  Running in c1 symmetry.

  Rotational constants: A =      0.16110  B =      0.04131  C =      0.03544 [cm^-1]
  Rotational constants: A =   4829.52533  B =   1238.44371  C =   1062.47642 [MHz]
  Nuclear repulsion =  250.928445169719851

  Charge       = 0
  Multiplicity = 1
  Electrons    = 52
  Nalpha       = 26
  Nbeta        = 26

  ==> Algorithm <==

  SCF Algorithm Type is DF.
  DIIS enabled.
  MOM disabled.
  Fractional occupation disabled.
  Guess Type is SAD.
  Energy threshold   = 1.00e-08
  Density threshold  = 1.00e-08
  Integral threshold = 1.00e-12

  ==> Primary Basis <==

  Basis Set: AUG-CC-PVTZ
    Blend: AUG-CC-PVTZ
    Number of shells: 192
    Number of basis functions: 552
    Number of Cartesian functions: 630
    Spherical Harmonics?: true
    Max angular momentum: 3

   => Loading Basis Set <=

    Name: (AUG-CC-PVTZ AUX)
    Role: JKFIT
    Keyword: DF_BASIS_SCF
    atoms 1-2, 10-11 entry C          line   162 file /home/kchung25/anaconda3/envs/p415env/share/psi4/basis/aug-cc-pvtz-jkfit.gbs 
    atoms 3, 12      entry O          line   286 file /home/kchung25/anaconda3/envs/p415env/share/psi4/basis/aug-cc-pvtz-jkfit.gbs 
    atoms 4-9, 13-18 entry H          line    70 file /home/kchung25/anaconda3/envs/p415env/share/psi4/basis/aug-cc-pvtz-jkfit.gbs 

  ==> Integral Setup <==

  ==> DiskDFJK: Density-Fitted J/K Matrices <==

    J tasked:                  Yes
    K tasked:                  Yes
    wK tasked:                  No
    OpenMP threads:              1
    Integrals threads:           1
    Memory [MiB]:             7152
    Algorithm:                Core
    Integral Cache:           SAVE
    Schwarz Cutoff:          1E-12
    Fitting Condition:       1E-10

   => Auxiliary Basis Set <=

  Basis Set: (AUG-CC-PVTZ AUX)
    Blend: AUG-CC-PVTZ-JKFIT
    Number of shells: 348
    Number of basis functions: 1176
    Number of Cartesian functions: 1446
    Spherical Harmonics?: true
    Max angular momentum: 4

  Minimum eigenvalue in the overlap matrix is 9.3483591622E-06.
  Reciprocal condition number of the overlap matrix is 5.0240979511E-07.
    Using symmetric orthogonalization.

  ==> Pre-Iterations <==

  SCF Guess: Superposition of Atomic Densities via on-the-fly atomic UHF (no occupation information).

   -------------------------
    Irrep   Nso     Nmo    
   -------------------------
     A        552     552 
   -------------------------
    Total     552     552
   -------------------------

  ==> Iterations <==

                           Total Energy        Delta E     RMS |[F,P]|

   @DF-RHF iter SAD:  -307.04890169909868   -3.07049e+02   0.00000e+00 
   @DF-RHF iter   1:  -308.00763506074918   -9.58733e-01   1.31524e-03 ADIIS/DIIS
   @DF-RHF iter   2:  -308.23169357465542   -2.24059e-01   6.82216e-04 ADIIS/DIIS
   @DF-RHF iter   3:  -308.28519181521040   -5.34982e-02   1.18226e-04 ADIIS/DIIS
   @DF-RHF iter   4:  -308.28834751734234   -3.15570e-03   4.43460e-05 DIIS
   @DF-RHF iter   5:  -308.28869668431173   -3.49167e-04   8.67577e-06 DIIS
   @DF-RHF iter   6:  -308.28871703489949   -2.03506e-05   2.01817e-06 DIIS
   @DF-RHF iter   7:  -308.28871847796631   -1.44307e-06   5.83354e-07 DIIS
   @DF-RHF iter   8:  -308.28871858925146   -1.11285e-07   1.81067e-07 DIIS
   @DF-RHF iter   9:  -308.28871860161428   -1.23628e-08   4.73796e-08 DIIS
   @DF-RHF iter  10:  -308.28871860249541   -8.81130e-10   1.04890e-08 DIIS
   @DF-RHF iter  11:  -308.28871860253275   -3.73461e-11   4.12852e-09 DIIS
  Energy and wave function converged.


  ==> Post-Iterations <==

    Orbital Energies [Eh]
    ---------------------

    Doubly Occupied:                                                      

       1A    -20.561663     2A    -20.546460     3A    -11.278824  
       4A    -11.261091     5A    -11.221523     6A    -11.203810  
       7A     -1.369187     8A     -1.352995     9A     -1.019139  
      10A     -1.001874    11A     -0.853952    12A     -0.836736  
      13A     -0.694971    14A     -0.674662    15A     -0.633041  
      16A     -0.619200    17A     -0.611752    18A     -0.602855  
      19A     -0.549596    20A     -0.531303    21A     -0.530191  
      22A     -0.512571    23A     -0.487425    24A     -0.469787  
      25A     -0.448256    26A     -0.431684  

    Virtual:                                                              

      27A      0.027203    28A      0.033417    29A      0.038123  
      30A      0.038466    31A      0.052705    32A      0.054194  
      33A      0.055018    34A      0.061712    35A      0.067839  
      36A      0.075875    37A      0.080043    38A      0.087304  
      39A      0.114022    40A      0.118506    41A      0.120866  
      42A      0.127683    43A      0.129817    44A      0.133306  
      45A      0.139435    46A      0.144403    47A      0.147919  
      48A      0.152603    49A      0.157206    50A      0.160578  
      51A      0.164083    52A      0.182047    53A      0.188735  
      54A      0.193440    55A      0.196598    56A      0.205408  
      57A      0.219338    58A      0.221172    59A      0.224755  
      60A      0.232682    61A      0.244344    62A      0.256286  
      63A      0.268655    64A      0.273625    65A      0.280122  
      66A      0.285747    67A      0.290907    68A      0.300431  
      69A      0.304183    70A      0.311689    71A      0.313636  
      72A      0.316402    73A      0.330797    74A      0.336460  
      75A      0.342019    76A      0.347139    77A      0.353480  
      78A      0.359072    79A      0.364322    80A      0.368575  
      81A      0.372100    82A      0.374600    83A      0.377376  
      84A      0.383790    85A      0.386319    86A      0.393636  
      87A      0.402090    88A      0.410253    89A      0.413453  
      90A      0.417734    91A      0.423679    92A      0.430553  
      93A      0.433269    94A      0.437764    95A      0.443722  
      96A      0.448827    97A      0.453148    98A      0.463807  
      99A      0.464927   100A      0.470148   101A      0.474282  
     102A      0.478789   103A      0.482387   104A      0.488049  
     105A      0.493087   106A      0.498532   107A      0.507789  
     108A      0.508882   109A      0.513613   110A      0.515529  
     111A      0.528309   112A      0.528814   113A      0.539981  
     114A      0.545378   115A      0.550052   116A      0.556009  
     117A      0.563927   118A      0.567673   119A      0.577068  
     120A      0.582223   121A      0.584039   122A      0.606054  
     123A      0.611983   124A      0.625976   125A      0.637638  
     126A      0.642532   127A      0.645649   128A      0.654999  
     129A      0.659421   130A      0.665987   131A      0.683564  
     132A      0.689293   133A      0.697059   134A      0.705079  
     135A      0.722844   136A      0.750300   137A      0.755341  
     138A      0.771319   139A      0.781216   140A      0.789674  
     141A      0.802767   142A      0.807471   143A      0.819366  
     144A      0.820484   145A      0.830212   146A      0.832081  
     147A      0.842302   148A      0.845959   149A      0.855234  
     150A      0.862576   151A      0.865959   152A      0.873371  
     153A      0.882680   154A      0.888320   155A      0.890356  
     156A      0.891027   157A      0.903100   158A      0.906682  
     159A      0.920501   160A      0.927708   161A      0.929867  
     162A      0.940652   163A      0.949862   164A      0.960702  
     165A      0.967986   166A      0.974138   167A      0.974516  
     168A      0.983468   169A      0.992594   170A      0.996376  
     171A      1.000921   172A      1.005990   173A      1.014122  
     174A      1.021332   175A      1.027875   176A      1.037533  
     177A      1.039867   178A      1.056778   179A      1.057881  
     180A      1.066783   181A      1.075839   182A      1.087317  
     183A      1.090537   184A      1.099053   185A      1.102626  
     186A      1.105910   187A      1.116294   188A      1.119586  
     189A      1.128533   190A      1.141092   191A      1.148692  
     192A      1.158819   193A      1.161610   194A      1.167177  
     195A      1.169030   196A      1.179737   197A      1.183252  
     198A      1.189000   199A      1.195170   200A      1.202969  
     201A      1.204873   202A      1.224606   203A      1.244397  
     204A      1.252754   205A      1.262127   206A      1.265364  
     207A      1.268538   208A      1.275971   209A      1.286859  
     210A      1.298712   211A      1.310022   212A      1.315927  
     213A      1.321917   214A      1.338599   215A      1.348076  
     216A      1.348665   217A      1.358768   218A      1.370385  
     219A      1.376060   220A      1.393586   221A      1.401511  
     222A      1.404898   223A      1.410422   224A      1.421866  
     225A      1.428392   226A      1.431691   227A      1.439974  
     228A      1.450437   229A      1.461184   230A      1.477398  
     231A      1.498306   232A      1.501913   233A      1.510774  
     234A      1.523483   235A      1.531866   236A      1.558888  
     237A      1.565990   238A      1.571340   239A      1.580409  
     240A      1.599620   241A      1.614112   242A      1.621677  
     243A      1.625309   244A      1.640557   245A      1.644704  
     246A      1.657229   247A      1.665046   248A      1.677397  
     249A      1.682275   250A      1.689053   251A      1.694225  
     252A      1.714247   253A      1.720919   254A      1.724303  
     255A      1.733043   256A      1.740377   257A      1.747694  
     258A      1.749409   259A      1.766499   260A      1.780709  
     261A      1.788556   262A      1.798186   263A      1.804176  
     264A      1.817982   265A      1.831248   266A      1.833732  
     267A      1.843741   268A      1.857640   269A      1.866527  
     270A      1.872472   271A      1.883927   272A      1.892699  
     273A      1.897642   274A      1.913051   275A      1.924102  
     276A      1.927973   277A      1.946922   278A      1.954522  
     279A      1.972622   280A      1.980103   281A      2.004459  
     282A      2.017847   283A      2.026005   284A      2.034446  
     285A      2.045436   286A      2.058762   287A      2.070486  
     288A      2.074506   289A      2.087380   290A      2.099312  
     291A      2.103591   292A      2.120118   293A      2.135648  
     294A      2.141216   295A      2.162743   296A      2.178316  
     297A      2.185294   298A      2.201322   299A      2.216583  
     300A      2.233418   301A      2.236935   302A      2.254311  
     303A      2.264063   304A      2.271480   305A      2.290838  
     306A      2.299915   307A      2.319522   308A      2.333143  
     309A      2.339601   310A      2.357731   311A      2.377702  
     312A      2.399074   313A      2.418919   314A      2.439955  
     315A      2.460005   316A      2.474958   317A      2.481563  
     318A      2.515712   319A      2.562072   320A      2.574674  
     321A      2.610571   322A      2.619135   323A      2.672068  
     324A      2.690600   325A      2.701007   326A      2.724042  
     327A      2.742243   328A      2.767070   329A      2.829423  
     330A      2.844465   331A      2.852022   332A      2.873061  
     333A      2.900277   334A      2.911869   335A      2.937879  
     336A      2.965692   337A      2.979840   338A      3.012867  
     339A      3.035321   340A      3.044281   341A      3.049274  
     342A      3.072500   343A      3.118680   344A      3.127740  
     345A      3.184298   346A      3.198976   347A      3.231581  
     348A      3.247497   349A      3.253619   350A      3.288612  
     351A      3.369097   352A      3.425408   353A      3.455071  
     354A      3.459921   355A      3.479573   356A      3.489791  
     357A      3.499897   358A      3.535523   359A      3.537539  
     360A      3.554415   361A      3.606316   362A      3.626604  
     363A      3.646477   364A      3.650739   365A      3.658999  
     366A      3.675310   367A      3.679086   368A      3.690302  
     369A      3.709529   370A      3.717395   371A      3.728994  
     372A      3.750273   373A      3.766123   374A      3.780771  
     375A      3.794757   376A      3.802211   377A      3.815006  
     378A      3.826322   379A      3.835018   380A      3.850572  
     381A      3.866275   382A      3.890019   383A      3.919128  
     384A      3.930026   385A      3.944392   386A      3.961483  
     387A      3.974035   388A      3.981813   389A      3.989881  
     390A      3.995006   391A      4.001962   392A      4.009768  
     393A      4.024225   394A      4.046477   395A      4.065949  
     396A      4.081506   397A      4.100083   398A      4.105825  
     399A      4.118464   400A      4.129828   401A      4.135507  
     402A      4.150629   403A      4.170283   404A      4.175222  
     405A      4.185705   406A      4.204651   407A      4.212151  
     408A      4.225812   409A      4.236945   410A      4.252266  
     411A      4.271557   412A      4.279569   413A      4.295769  
     414A      4.311926   415A      4.367247   416A      4.379368  
     417A      4.380286   418A      4.399226   419A      4.413735  
     420A      4.468973   421A      4.476959   422A      4.487463  
     423A      4.527766   424A      4.530895   425A      4.561019  
     426A      4.578406   427A      4.582544   428A      4.599418  
     429A      4.606246   430A      4.615520   431A      4.635933  
     432A      4.652733   433A      4.675712   434A      4.698298  
     435A      4.713196   436A      4.738433   437A      4.740797  
     438A      4.761951   439A      4.773521   440A      4.805279  
     441A      4.818012   442A      4.835902   443A      4.853488  
     444A      4.866412   445A      4.872322   446A      4.890915  
     447A      4.904690   448A      4.924233   449A      4.931683  
     450A      4.938232   451A      4.960705   452A      4.975214  
     453A      4.985506   454A      5.003009   455A      5.029867  
     456A      5.036534   457A      5.045011   458A      5.049490  
     459A      5.073298   460A      5.103196   461A      5.135365  
     462A      5.153067   463A      5.163043   464A      5.166294  
     465A      5.188768   466A      5.207728   467A      5.224889  
     468A      5.247757   469A      5.283270   470A      5.289964  
     471A      5.321716   472A      5.341209   473A      5.372263  
     474A      5.379312   475A      5.395359   476A      5.424071  
     477A      5.435666   478A      5.457971   479A      5.485917  
     480A      5.495464   481A      5.514624   482A      5.534022  
     483A      5.558787   484A      5.575960   485A      5.586917  
     486A      5.609505   487A      5.625993   488A      5.641255  
     489A      5.644775   490A      5.675185   491A      5.700031  
     492A      5.723032   493A      5.735754   494A      5.758816  
     495A      5.790265   496A      5.834923   497A      5.868257  
     498A      5.886874   499A      6.006264   500A      6.041169  
     501A      6.081199   502A      6.114274   503A      6.127179  
     504A      6.146342   505A      6.195455   506A      6.211938  
     507A      6.235327   508A      6.248899   509A      6.261920  
     510A      6.270242   511A      6.278154   512A      6.323441  
     513A      6.403539   514A      6.464350   515A      6.719145  
     516A      6.727412   517A      6.731325   518A      6.779587  
     519A      6.802998   520A      6.851453   521A      6.880848  
     522A      6.888841   523A      6.963192   524A      6.982443  
     525A      7.006833   526A      7.035366   527A      7.150792  
     528A      7.168640   529A      7.360898   530A      7.369530  
     531A      7.392159   532A      7.417825   533A      7.472814  
     534A      7.527456   535A      7.539407   536A      7.565793  
     537A      7.669413   538A      7.728501   539A      7.879429  
     540A      7.889356   541A      7.946636   542A      7.973755  
     543A      8.258626   544A      8.284268   545A      8.625574  
     546A      8.663141   547A     16.367444   548A     16.441130  
     549A     17.783338   550A     17.943034   551A     18.627615  
     552A     18.844448  

    Final Occupation by Irrep:
              A 
    DOCC [    26 ]
    NA   [    26 ]
    NB   [    26 ]

  @DF-RHF Final Energy:  -308.28871860253275

   => Energetics <=

    Nuclear Repulsion Energy =            250.9284451697198506
    One-Electron Energy =                -917.8252265694557082
    Two-Electron Energy =                 358.6080627972030470
    Total Energy =                       -308.2887186025327537

Computation Completed


Properties will be evaluated at   0.000000,   0.000000,   0.000000 [a0]

Properties computed using the SCF density matrix


 Multipole Moments:

 ------------------------------------------------------------------------------------
     Multipole            Electronic (a.u.)      Nuclear  (a.u.)        Total (a.u.)
 ------------------------------------------------------------------------------------

 L = 1.  Multiply by 2.5417464519 to convert [e a0] to [Debye]
 Dipole X            :         -0.8959099           -0.0000000           -0.8959099
 Dipole Y            :          0.1015827           -0.0000151            0.1015676
 Dipole Z            :          0.4457957           -0.0000000            0.4457957
 Magnitude           :                                                    1.0058351

 ------------------------------------------------------------------------------------

*** tstop() called on moses-razer at Sun Mar  2 04:15:43 2025
Module time:
	user time   =     140.16 seconds =       2.34 minutes
	system time =       3.32 seconds =       0.06 minutes
	total time  =        144 seconds =       2.40 minutes
Total time:
	user time   =     140.16 seconds =       2.34 minutes
	system time =       3.32 seconds =       0.06 minutes
	total time  =        144 seconds =       2.40 minutes

  //>>>>>>>>>>>>>>>>>>>>>>>>>>>>>>>>>>>//
  //            Monomer A HF           //
  //<<<<<<<<<<<<<<<<<<<<<<<<<<<<<<<<<<<//

   => Libint2 <=

    Primary   basis highest AM E, G, H:  5, 4, 3
    Auxiliary basis highest AM E, G, H:  6, 5, 4
    Onebody   basis highest AM E, G, H:  6, 5, 4
    Solid Harmonics ordering:            gaussian

*** tstart() called on moses-razer
*** at Sun Mar  2 04:15:43 2025

   => Loading Basis Set <=

    Name: AUG-CC-PVTZ
    Role: ORBITAL
    Keyword: BASIS
    atoms 1-2, 10-11 entry C          line   239 file /home/kchung25/anaconda3/envs/p415env/share/psi4/basis/aug-cc-pvtz.gbs 
    atoms 3, 12      entry O          line   331 file /home/kchung25/anaconda3/envs/p415env/share/psi4/basis/aug-cc-pvtz.gbs 
    atoms 4-9, 13-18 entry H          line    40 file /home/kchung25/anaconda3/envs/p415env/share/psi4/basis/aug-cc-pvtz.gbs 


         ---------------------------------------------------------
                                   SCF
               by Justin Turney, Rob Parrish, Andy Simmonett
                          and Daniel G. A. Smith
                              RHF Reference
                        1 Threads,   9536 MiB Core
         ---------------------------------------------------------

  ==> Geometry <==

    Molecular point group: c1
    Full point group: C1

    Geometry (in Angstrom), charge = 0, multiplicity = 1:

       Center              X                  Y                   Z               Mass       
    ------------   -----------------  -----------------  -----------------  -----------------
         C           -2.349038000000    -1.157925000000     0.034796000000    12.000000000000
         C           -2.056539000000     0.254134000000     0.474099000000    12.000000000000
         O           -1.466127000000     1.027122000000    -0.547162000000    15.994914619570
         H           -2.044202000000     1.012050000000    -1.314173000000     1.007825032230
         H           -2.772715000000    -1.745591000000     0.851689000000     1.007825032230
         H           -1.437215000000    -1.650556000000    -0.309185000000     1.007825032230
         H           -3.070166000000    -1.168403000000    -0.788025000000     1.007825032230
         H           -1.338097000000     0.256338000000     1.299576000000     1.007825032230
         H           -2.969983000000     0.735774000000     0.851362000000     1.007825032230
      Gh(C)           1.812643000000     1.175608000000     0.267567000000    12.000000000000
      Gh(C)           1.500073000000    -0.258318000000    -0.073084000000    12.000000000000
      Gh(O)           2.656582000000    -1.052379000000    -0.216325000000    15.994914619570
      Gh(H)           3.191286000000    -0.947763000000     0.574607000000     1.007825032230
      Gh(H)           0.896190000000     1.767216000000     0.310822000000     1.007825032230
      Gh(H)           2.472721000000     1.612217000000    -0.484809000000     1.007825032230
      Gh(H)           2.313676000000     1.247640000000     1.238406000000     1.007825032230
      Gh(H)           0.969069000000    -0.311788000000    -1.026278000000     1.007825032230
      Gh(H)           0.822962000000    -0.686080000000     0.683636000000     1.007825032230

  Running in c1 symmetry.

  Rotational constants: A =      0.16110  B =      0.04131  C =      0.03544 [cm^-1]
  Rotational constants: A =   4829.52533  B =   1238.44371  C =   1062.47642 [MHz]
  Nuclear repulsion =   82.146570739809292

  Charge       = 0
  Multiplicity = 1
  Electrons    = 26
  Nalpha       = 13
  Nbeta        = 13

  ==> Algorithm <==

  SCF Algorithm Type is DF.
  DIIS enabled.
  MOM disabled.
  Fractional occupation disabled.
  Guess Type is SAD.
  Energy threshold   = 1.00e-08
  Density threshold  = 1.00e-08
  Integral threshold = 1.00e-12

  ==> Primary Basis <==

  Basis Set: AUG-CC-PVTZ
    Blend: AUG-CC-PVTZ
    Number of shells: 192
    Number of basis functions: 552
    Number of Cartesian functions: 630
    Spherical Harmonics?: true
    Max angular momentum: 3

   => Loading Basis Set <=

    Name: (AUG-CC-PVTZ AUX)
    Role: JKFIT
    Keyword: DF_BASIS_SCF
    atoms 1-2, 10-11 entry C          line   162 file /home/kchung25/anaconda3/envs/p415env/share/psi4/basis/aug-cc-pvtz-jkfit.gbs 
    atoms 3, 12      entry O          line   286 file /home/kchung25/anaconda3/envs/p415env/share/psi4/basis/aug-cc-pvtz-jkfit.gbs 
    atoms 4-9, 13-18 entry H          line    70 file /home/kchung25/anaconda3/envs/p415env/share/psi4/basis/aug-cc-pvtz-jkfit.gbs 

  ==> Integral Setup <==

  ==> DiskDFJK: Density-Fitted J/K Matrices <==

    J tasked:                  Yes
    K tasked:                  Yes
    wK tasked:                  No
    OpenMP threads:              1
    Integrals threads:           1
    Memory [MiB]:             7152
    Algorithm:                Core
    Integral Cache:           LOAD
    Schwarz Cutoff:          1E-12
    Fitting Condition:       1E-10

   => Auxiliary Basis Set <=

  Basis Set: (AUG-CC-PVTZ AUX)
    Blend: AUG-CC-PVTZ-JKFIT
    Number of shells: 348
    Number of basis functions: 1176
    Number of Cartesian functions: 1446
    Spherical Harmonics?: true
    Max angular momentum: 4

  Minimum eigenvalue in the overlap matrix is 9.3483591622E-06.
  Reciprocal condition number of the overlap matrix is 5.0240979511E-07.
    Using symmetric orthogonalization.

  ==> Pre-Iterations <==

  SCF Guess: Superposition of Atomic Densities via on-the-fly atomic UHF (no occupation information).

   -------------------------
    Irrep   Nso     Nmo    
   -------------------------
     A        552     552 
   -------------------------
    Total     552     552
   -------------------------

  ==> Iterations <==

                           Total Energy        Delta E     RMS |[F,P]|

   @DF-RHF iter SAD:  -153.45585284263620   -1.53456e+02   0.00000e+00 
   @DF-RHF iter   1:  -154.00363794572240   -5.47785e-01   9.37422e-04 ADIIS/DIIS
   @DF-RHF iter   2:  -154.11544346295096   -1.11806e-01   4.95255e-04 ADIIS/DIIS
   @DF-RHF iter   3:  -154.14337146134119   -2.79280e-02   8.38052e-05 DIIS
   @DF-RHF iter   4:  -154.14494766885346   -1.57621e-03   3.20616e-05 DIIS
   @DF-RHF iter   5:  -154.14513340074956   -1.85732e-04   6.21084e-06 DIIS
   @DF-RHF iter   6:  -154.14514366858478   -1.02678e-05   1.42430e-06 DIIS
   @DF-RHF iter   7:  -154.14514440260993   -7.34025e-07   4.05695e-07 DIIS
   @DF-RHF iter   8:  -154.14514445766031   -5.50504e-08   1.28408e-07 DIIS
   @DF-RHF iter   9:  -154.14514446383689   -6.17658e-09   3.29585e-08 DIIS
   @DF-RHF iter  10:  -154.14514446426878   -4.31896e-10   6.29780e-09 DIIS
  Energy and wave function converged.


  ==> Post-Iterations <==

    Orbital Energies [Eh]
    ---------------------

    Doubly Occupied:                                                      

       1A    -20.555312     2A    -11.273512     3A    -11.218518  
       4A     -1.361859     5A     -1.014603     6A     -0.848718  
       7A     -0.686673     8A     -0.625713     9A     -0.612792  
      10A     -0.543918    11A     -0.526363    12A     -0.480995  
      13A     -0.442938  

    Virtual:                                                              

      14A      0.025539    15A      0.032651    16A      0.036392  
      17A      0.037938    18A      0.051956    19A      0.052830  
      20A      0.055057    21A      0.059848    22A      0.067412  
      23A      0.076971    24A      0.079873    25A      0.083085  
      26A      0.101680    27A      0.111111    28A      0.115873  
      29A      0.120330    30A      0.124808    31A      0.127441  
      32A      0.135050    33A      0.141676    34A      0.142232  
      35A      0.145859    36A      0.149602    37A      0.157356  
      38A      0.158611    39A      0.174283    40A      0.182848  
      41A      0.188423    42A      0.193721    43A      0.209253  
      44A      0.211078    45A      0.223883    46A      0.229910  
      47A      0.231810    48A      0.240304    49A      0.251522  
      50A      0.253831    51A      0.267284    52A      0.275464  
      53A      0.276656    54A      0.288379    55A      0.294878  
      56A      0.297392    57A      0.303177    58A      0.310195  
      59A      0.319433    60A      0.320694    61A      0.331195  
      62A      0.336552    63A      0.340238    64A      0.344604  
      65A      0.350113    66A      0.355809    67A      0.356532  
      68A      0.365580    69A      0.371016    70A      0.382067  
      71A      0.383791    72A      0.387828    73A      0.393732  
      74A      0.396765    75A      0.410983    76A      0.416553  
      77A      0.424220    78A      0.425994    79A      0.430274  
      80A      0.439529    81A      0.440267    82A      0.448585  
      83A      0.452987    84A      0.462331    85A      0.465052  
      86A      0.468770    87A      0.474830    88A      0.481692  
      89A      0.483072    90A      0.488982    91A      0.493535  
      92A      0.499465    93A      0.506657    94A      0.511651  
      95A      0.516716    96A      0.520606    97A      0.529360  
      98A      0.535286    99A      0.548108   100A      0.549432  
     101A      0.560593   102A      0.562490   103A      0.566807  
     104A      0.575360   105A      0.579981   106A      0.599342  
     107A      0.604872   108A      0.610883   109A      0.618475  
     110A      0.630389   111A      0.632196   112A      0.638323  
     113A      0.642505   114A      0.645175   115A      0.650583  
     116A      0.657404   117A      0.679041   118A      0.685524  
     119A      0.688658   120A      0.691961   121A      0.708448  
     122A      0.715729   123A      0.723544   124A      0.732683  
     125A      0.755448   126A      0.761436   127A      0.768000  
     128A      0.792945   129A      0.799841   130A      0.813123  
     131A      0.824776   132A      0.839035   133A      0.842528  
     134A      0.847106   135A      0.852213   136A      0.876375  
     137A      0.878135   138A      0.885561   139A      0.888050  
     140A      0.908108   141A      0.910786   142A      0.918090  
     143A      0.924377   144A      0.926097   145A      0.943106  
     146A      0.948249   147A      0.954407   148A      0.961840  
     149A      0.968762   150A      0.974355   151A      0.986969  
     152A      0.993397   153A      1.003295   154A      1.008618  
     155A      1.014197   156A      1.019876   157A      1.026469  
     158A      1.041043   159A      1.050884   160A      1.053336  
     161A      1.058426   162A      1.064658   163A      1.077423  
     164A      1.084012   165A      1.087883   166A      1.098604  
     167A      1.099782   168A      1.107387   169A      1.110990  
     170A      1.126302   171A      1.129889   172A      1.130700  
     173A      1.137871   174A      1.146387   175A      1.147552  
     176A      1.161950   177A      1.169333   178A      1.171344  
     179A      1.182242   180A      1.183402   181A      1.195786  
     182A      1.202865   183A      1.207197   184A      1.213652  
     185A      1.219099   186A      1.224924   187A      1.233886  
     188A      1.237363   189A      1.251334   190A      1.257767  
     191A      1.259434   192A      1.272846   193A      1.282864  
     194A      1.287419   195A      1.303312   196A      1.318631  
     197A      1.323634   198A      1.328240   199A      1.330990  
     200A      1.336489   201A      1.357753   202A      1.361297  
     203A      1.371749   204A      1.378876   205A      1.390884  
     206A      1.393838   207A      1.401351   208A      1.412803  
     209A      1.418271   210A      1.426100   211A      1.431814  
     212A      1.444425   213A      1.454117   214A      1.459769  
     215A      1.469065   216A      1.472919   217A      1.485395  
     218A      1.489733   219A      1.506791   220A      1.513999  
     221A      1.528038   222A      1.542810   223A      1.548521  
     224A      1.567501   225A      1.571977   226A      1.585784  
     227A      1.599368   228A      1.610053   229A      1.622285  
     230A      1.632361   231A      1.644918   232A      1.647303  
     233A      1.657277   234A      1.674458   235A      1.681155  
     236A      1.691694   237A      1.711100   238A      1.717255  
     239A      1.722254   240A      1.733417   241A      1.749717  
     242A      1.751376   243A      1.759443   244A      1.776343  
     245A      1.782563   246A      1.813349   247A      1.815527  
     248A      1.823252   249A      1.840229   250A      1.852698  
     251A      1.873613   252A      1.876449   253A      1.888645  
     254A      1.896902   255A      1.904693   256A      1.910441  
     257A      1.923090   258A      1.933588   259A      1.946773  
     260A      1.957135   261A      1.972405   262A      1.978481  
     263A      2.003039   264A      2.010222   265A      2.011717  
     266A      2.026724   267A      2.040791   268A      2.059835  
     269A      2.066763   270A      2.076017   271A      2.083987  
     272A      2.090877   273A      2.113331   274A      2.126489  
     275A      2.129117   276A      2.137226   277A      2.154723  
     278A      2.165156   279A      2.171144   280A      2.185184  
     281A      2.206645   282A      2.211237   283A      2.218757  
     284A      2.237741   285A      2.242122   286A      2.266390  
     287A      2.273934   288A      2.284134   289A      2.291944  
     290A      2.303276   291A      2.323107   292A      2.343852  
     293A      2.364002   294A      2.373988   295A      2.401844  
     296A      2.404564   297A      2.423472   298A      2.442596  
     299A      2.471037   300A      2.488042   301A      2.496372  
     302A      2.525681   303A      2.547423   304A      2.555251  
     305A      2.577075   306A      2.608137   307A      2.641093  
     308A      2.648140   309A      2.674724   310A      2.704090  
     311A      2.733601   312A      2.736109   313A      2.755692  
     314A      2.760913   315A      2.776635   316A      2.784162  
     317A      2.819190   318A      2.835103   319A      2.846529  
     320A      2.862739   321A      2.878493   322A      2.888663  
     323A      2.900941   324A      2.918536   325A      2.973329  
     326A      2.991053   327A      3.027873   328A      3.037668  
     329A      3.053524   330A      3.099995   331A      3.119235  
     332A      3.158710   333A      3.173011   334A      3.209174  
     335A      3.226425   336A      3.253245   337A      3.289724  
     338A      3.336937   339A      3.339173   340A      3.355877  
     341A      3.407104   342A      3.439552   343A      3.471741  
     344A      3.502401   345A      3.511679   346A      3.539712  
     347A      3.554577   348A      3.613354   349A      3.644058  
     350A      3.679049   351A      3.683572   352A      3.712871  
     353A      3.727444   354A      3.743770   355A      3.773349  
     356A      3.784346   357A      3.794083   358A      3.807524  
     359A      3.814316   360A      3.836609   361A      3.882379  
     362A      3.919388   363A      3.925532   364A      3.955329  
     365A      3.975455   366A      3.981333   367A      3.996371  
     368A      4.023797   369A      4.043115   370A      4.078550  
     371A      4.094793   372A      4.110015   373A      4.120621  
     374A      4.123723   375A      4.158165   376A      4.162051  
     377A      4.182069   378A      4.192998   379A      4.197625  
     380A      4.217737   381A      4.238999   382A      4.245882  
     383A      4.270428   384A      4.281761   385A      4.297311  
     386A      4.303977   387A      4.333076   388A      4.341548  
     389A      4.371981   390A      4.373603   391A      4.410784  
     392A      4.438760   393A      4.456186   394A      4.480203  
     395A      4.496821   396A      4.500408   397A      4.526682  
     398A      4.539516   399A      4.555789   400A      4.572403  
     401A      4.577807   402A      4.596015   403A      4.607067  
     404A      4.620243   405A      4.628241   406A      4.646677  
     407A      4.650513   408A      4.675147   409A      4.693288  
     410A      4.704360   411A      4.716456   412A      4.740614  
     413A      4.755133   414A      4.765271   415A      4.789333  
     416A      4.819331   417A      4.838468   418A      4.847716  
     419A      4.854976   420A      4.862782   421A      4.874829  
     422A      4.898797   423A      4.924933   424A      4.930189  
     425A      4.935214   426A      4.965558   427A      4.977594  
     428A      5.011112   429A      5.015677   430A      5.032868  
     431A      5.049658   432A      5.053694   433A      5.059805  
     434A      5.085784   435A      5.098317   436A      5.106490  
     437A      5.153600   438A      5.163673   439A      5.170123  
     440A      5.188956   441A      5.213046   442A      5.224763  
     443A      5.245410   444A      5.260249   445A      5.284389  
     446A      5.305479   447A      5.352004   448A      5.370180  
     449A      5.377579   450A      5.400548   451A      5.413554  
     452A      5.430762   453A      5.454473   454A      5.474872  
     455A      5.500330   456A      5.520799   457A      5.532914  
     458A      5.540748   459A      5.558429   460A      5.572574  
     461A      5.591440   462A      5.621576   463A      5.638581  
     464A      5.639983   465A      5.648816   466A      5.656214  
     467A      5.685319   468A      5.704825   469A      5.713515  
     470A      5.728399   471A      5.781248   472A      5.787893  
     473A      5.801855   474A      5.825826   475A      5.867295  
     476A      5.884373   477A      5.900885   478A      5.978829  
     479A      6.014249   480A      6.061283   481A      6.088815  
     482A      6.113795   483A      6.136134   484A      6.167183  
     485A      6.183579   486A      6.228985   487A      6.244078  
     488A      6.265809   489A      6.274879   490A      6.306979  
     491A      6.327570   492A      6.409786   493A      6.418241  
     494A      6.463423   495A      6.518972   496A      6.734142  
     497A      6.780392   498A      6.793600   499A      6.807507  
     500A      6.864892   501A      6.888895   502A      6.961952  
     503A      7.006597   504A      7.026215   505A      7.033465  
     506A      7.129317   507A      7.134980   508A      7.175739  
     509A      7.197191   510A      7.349032   511A      7.378308  
     512A      7.412861   513A      7.539375   514A      7.554736  
     515A      7.731778   516A      7.790995   517A      7.842790  
     518A      7.857394   519A      7.870766   520A      7.883163  
     521A      7.901035   522A      7.926212   523A      7.951557  
     524A      8.074164   525A      8.120649   526A      8.196173  
     527A      8.286867   528A      8.293881   529A      8.313149  
     530A      8.383038   531A      8.400074   532A      8.593905  
     533A      8.661913   534A      8.918573   535A      9.016948  
     536A     10.011450   537A     10.052730   538A     10.282032  
     539A     10.391685   540A     10.672758   541A     10.777032  
     542A     11.094670   543A     12.049481   544A     12.355472  
     545A     13.344142   546A     14.120483   547A     16.433934  
     548A     17.802281   549A     18.723595   550A     53.210768  
     551A     54.648826   552A     66.679128  

    Final Occupation by Irrep:
              A 
    DOCC [    13 ]
    NA   [    13 ]
    NB   [    13 ]

  @DF-RHF Final Energy:  -154.14514446426878

   => Energetics <=

    Nuclear Repulsion Energy =             82.1465707398092917
    One-Electron Energy =                -372.1996023633809614
    Two-Electron Energy =                 135.9078871593028737
    Total Energy =                       -154.1451444642687818

Computation Completed


Properties will be evaluated at   0.000000,   0.000000,   0.000000 [a0]

Properties computed using the SCF density matrix


 Multipole Moments:

 ------------------------------------------------------------------------------------
     Multipole            Electronic (a.u.)      Nuclear  (a.u.)        Total (a.u.)
 ------------------------------------------------------------------------------------

 L = 1.  Multiply by 2.5417464519 to convert [e a0] to [Debye]
 Dipole X            :         97.2813139          -97.8780925           -0.5967787
 Dipole Y            :         -0.8299633            0.4418973           -0.3880659
 Dipole Z            :          1.3608659           -1.3845683           -0.0237024
 Magnitude           :                                                    0.7122512

 ------------------------------------------------------------------------------------

*** tstop() called on moses-razer at Sun Mar  2 04:17:19 2025
Module time:
	user time   =      94.83 seconds =       1.58 minutes
	system time =       1.33 seconds =       0.02 minutes
	total time  =         96 seconds =       1.60 minutes
Total time:
	user time   =     234.99 seconds =       3.92 minutes
	system time =       4.65 seconds =       0.08 minutes
	total time  =        240 seconds =       4.00 minutes

  //>>>>>>>>>>>>>>>>>>>>>>>>>>>>>>>>>>>//
  //            Monomer B HF           //
  //<<<<<<<<<<<<<<<<<<<<<<<<<<<<<<<<<<<//

   => Libint2 <=

    Primary   basis highest AM E, G, H:  5, 4, 3
    Auxiliary basis highest AM E, G, H:  6, 5, 4
    Onebody   basis highest AM E, G, H:  6, 5, 4
    Solid Harmonics ordering:            gaussian

*** tstart() called on moses-razer
*** at Sun Mar  2 04:17:19 2025

   => Loading Basis Set <=

    Name: AUG-CC-PVTZ
    Role: ORBITAL
    Keyword: BASIS
    atoms 1-2, 10-11 entry C          line   239 file /home/kchung25/anaconda3/envs/p415env/share/psi4/basis/aug-cc-pvtz.gbs 
    atoms 3, 12      entry O          line   331 file /home/kchung25/anaconda3/envs/p415env/share/psi4/basis/aug-cc-pvtz.gbs 
    atoms 4-9, 13-18 entry H          line    40 file /home/kchung25/anaconda3/envs/p415env/share/psi4/basis/aug-cc-pvtz.gbs 


         ---------------------------------------------------------
                                   SCF
               by Justin Turney, Rob Parrish, Andy Simmonett
                          and Daniel G. A. Smith
                              RHF Reference
                        1 Threads,   9536 MiB Core
         ---------------------------------------------------------

  ==> Geometry <==

    Molecular point group: c1
    Full point group: C1

    Geometry (in Angstrom), charge = 0, multiplicity = 1:

       Center              X                  Y                   Z               Mass       
    ------------   -----------------  -----------------  -----------------  -----------------
      Gh(C)          -2.349038000000    -1.157925000000     0.034796000000    12.000000000000
      Gh(C)          -2.056539000000     0.254134000000     0.474099000000    12.000000000000
      Gh(O)          -1.466127000000     1.027122000000    -0.547162000000    15.994914619570
      Gh(H)          -2.044202000000     1.012050000000    -1.314173000000     1.007825032230
      Gh(H)          -2.772715000000    -1.745591000000     0.851689000000     1.007825032230
      Gh(H)          -1.437215000000    -1.650556000000    -0.309185000000     1.007825032230
      Gh(H)          -3.070166000000    -1.168403000000    -0.788025000000     1.007825032230
      Gh(H)          -1.338097000000     0.256338000000     1.299576000000     1.007825032230
      Gh(H)          -2.969983000000     0.735774000000     0.851362000000     1.007825032230
         C            1.812643000000     1.175608000000     0.267567000000    12.000000000000
         C            1.500073000000    -0.258318000000    -0.073084000000    12.000000000000
         O            2.656582000000    -1.052379000000    -0.216325000000    15.994914619570
         H            3.191286000000    -0.947763000000     0.574607000000     1.007825032230
         H            0.896190000000     1.767216000000     0.310822000000     1.007825032230
         H            2.472721000000     1.612217000000    -0.484809000000     1.007825032230
         H            2.313676000000     1.247640000000     1.238406000000     1.007825032230
         H            0.969069000000    -0.311788000000    -1.026278000000     1.007825032230
         H            0.822962000000    -0.686080000000     0.683636000000     1.007825032230

  Running in c1 symmetry.

  Rotational constants: A =      0.16110  B =      0.04131  C =      0.03544 [cm^-1]
  Rotational constants: A =   4829.52533  B =   1238.44371  C =   1062.47642 [MHz]
  Nuclear repulsion =   82.160693515794378

  Charge       = 0
  Multiplicity = 1
  Electrons    = 26
  Nalpha       = 13
  Nbeta        = 13

  ==> Algorithm <==

  SCF Algorithm Type is DF.
  DIIS enabled.
  MOM disabled.
  Fractional occupation disabled.
  Guess Type is SAD.
  Energy threshold   = 1.00e-08
  Density threshold  = 1.00e-08
  Integral threshold = 1.00e-12

  ==> Primary Basis <==

  Basis Set: AUG-CC-PVTZ
    Blend: AUG-CC-PVTZ
    Number of shells: 192
    Number of basis functions: 552
    Number of Cartesian functions: 630
    Spherical Harmonics?: true
    Max angular momentum: 3

   => Loading Basis Set <=

    Name: (AUG-CC-PVTZ AUX)
    Role: JKFIT
    Keyword: DF_BASIS_SCF
    atoms 1-2, 10-11 entry C          line   162 file /home/kchung25/anaconda3/envs/p415env/share/psi4/basis/aug-cc-pvtz-jkfit.gbs 
    atoms 3, 12      entry O          line   286 file /home/kchung25/anaconda3/envs/p415env/share/psi4/basis/aug-cc-pvtz-jkfit.gbs 
    atoms 4-9, 13-18 entry H          line    70 file /home/kchung25/anaconda3/envs/p415env/share/psi4/basis/aug-cc-pvtz-jkfit.gbs 

  ==> Integral Setup <==

  ==> DiskDFJK: Density-Fitted J/K Matrices <==

    J tasked:                  Yes
    K tasked:                  Yes
    wK tasked:                  No
    OpenMP threads:              1
    Integrals threads:           1
    Memory [MiB]:             7152
    Algorithm:                Core
    Integral Cache:           LOAD
    Schwarz Cutoff:          1E-12
    Fitting Condition:       1E-10

   => Auxiliary Basis Set <=

  Basis Set: (AUG-CC-PVTZ AUX)
    Blend: AUG-CC-PVTZ-JKFIT
    Number of shells: 348
    Number of basis functions: 1176
    Number of Cartesian functions: 1446
    Spherical Harmonics?: true
    Max angular momentum: 4

  Minimum eigenvalue in the overlap matrix is 9.3483591622E-06.
  Reciprocal condition number of the overlap matrix is 5.0240979511E-07.
    Using symmetric orthogonalization.

  ==> Pre-Iterations <==

  SCF Guess: Superposition of Atomic Densities via on-the-fly atomic UHF (no occupation information).

   -------------------------
    Irrep   Nso     Nmo    
   -------------------------
     A        552     552 
   -------------------------
    Total     552     552
   -------------------------

  ==> Iterations <==

                           Total Energy        Delta E     RMS |[F,P]|

   @DF-RHF iter SAD:  -153.45983083044428   -1.53460e+02   0.00000e+00 
   @DF-RHF iter   1:  -154.00370116104267   -5.43870e-01   9.36436e-04 ADIIS/DIIS
   @DF-RHF iter   2:  -154.11550023372422   -1.11799e-01   4.93499e-04 ADIIS/DIIS
   @DF-RHF iter   3:  -154.14322203459034   -2.77218e-02   8.37325e-05 DIIS
   @DF-RHF iter   4:  -154.14479599318946   -1.57396e-03   3.20098e-05 DIIS
   @DF-RHF iter   5:  -154.14498123816904   -1.85245e-04   6.22063e-06 DIIS
   @DF-RHF iter   6:  -154.14499150214846   -1.02640e-05   1.42863e-06 DIIS
   @DF-RHF iter   7:  -154.14499224102499   -7.38877e-07   4.06398e-07 DIIS
   @DF-RHF iter   8:  -154.14499229645753   -5.54325e-08   1.28850e-07 DIIS
   @DF-RHF iter   9:  -154.14499230265508   -6.19755e-09   3.30528e-08 DIIS
   @DF-RHF iter  10:  -154.14499230308584   -4.30759e-10   6.26150e-09 DIIS
  Energy and wave function converged.


  ==> Post-Iterations <==

    Orbital Energies [Eh]
    ---------------------

    Doubly Occupied:                                                      

       1A    -20.555683     2A    -11.273368     3A    -11.219067  
       4A     -1.362234     5A     -1.015442     6A     -0.848531  
       7A     -0.685143     8A     -0.626814     9A     -0.614736  
      10A     -0.542915    11A     -0.527852    12A     -0.481771  
      13A     -0.442103  

    Virtual:                                                              

      14A      0.021265    15A      0.032033    16A      0.035279  
      17A      0.037562    18A      0.051323    19A      0.052367  
      20A      0.053316    21A      0.061840    22A      0.066351  
      23A      0.075160    24A      0.078693    25A      0.083586  
      26A      0.092574    27A      0.108861    28A      0.113999  
      29A      0.119196    30A      0.121022    31A      0.127494  
      32A      0.133489    33A      0.138747    34A      0.143116  
      35A      0.146550    36A      0.148348    37A      0.155895  
      38A      0.158810    39A      0.177131    40A      0.179620  
      41A      0.187763    42A      0.190980    43A      0.199174  
      44A      0.203000    45A      0.219934    46A      0.226888  
      47A      0.235837    48A      0.238531    49A      0.240581  
      50A      0.248685    51A      0.265511    52A      0.270148  
      53A      0.282821    54A      0.285309    55A      0.290996  
      56A      0.298065    57A      0.307535    58A      0.314302  
      59A      0.318961    60A      0.325080    61A      0.328351  
      62A      0.333683    63A      0.338099    64A      0.342276  
      65A      0.348483    66A      0.354313    67A      0.356455  
      68A      0.363961    69A      0.371195    70A      0.375070  
      71A      0.375231    72A      0.385263    73A      0.387553  
      74A      0.390844    75A      0.402937    76A      0.408141  
      77A      0.414723    78A      0.419118    79A      0.419552  
      80A      0.431534    81A      0.434569    82A      0.445470  
      83A      0.449546    84A      0.453869    85A      0.461095  
      86A      0.466229    87A      0.469787    88A      0.472828  
      89A      0.479871    90A      0.487298    91A      0.489915  
      92A      0.502174    93A      0.504455    94A      0.507367  
      95A      0.514061    96A      0.519380    97A      0.526996  
      98A      0.534179    99A      0.546135   100A      0.548409  
     101A      0.552681   102A      0.555542   103A      0.569156  
     104A      0.576610   105A      0.578915   106A      0.591059  
     107A      0.602816   108A      0.604706   109A      0.608970  
     110A      0.612489   111A      0.628314   112A      0.635844  
     113A      0.644343   114A      0.650239   115A      0.656645  
     116A      0.661975   117A      0.676144   118A      0.684489  
     119A      0.691925   120A      0.698672   121A      0.704888  
     122A      0.714152   123A      0.721054   124A      0.742227  
     125A      0.752238   126A      0.764567   127A      0.767462  
     128A      0.776239   129A      0.789243   130A      0.797234  
     131A      0.804934   132A      0.816322   133A      0.832893  
     134A      0.836424   135A      0.852555   136A      0.854332  
     137A      0.863504   138A      0.873793   139A      0.877424  
     140A      0.885504   141A      0.898811   142A      0.911100  
     143A      0.919171   144A      0.930431   145A      0.935035  
     146A      0.939379   147A      0.946553   148A      0.956357  
     149A      0.969869   150A      0.977421   151A      0.985701  
     152A      0.989839   153A      0.994025   154A      1.005021  
     155A      1.008683   156A      1.014706   157A      1.030992  
     158A      1.037466   159A      1.042889   160A      1.047963  
     161A      1.058779   162A      1.067729   163A      1.069898  
     164A      1.080577   165A      1.086012   166A      1.091633  
     167A      1.094667   168A      1.100645   169A      1.102696  
     170A      1.105608   171A      1.120172   172A      1.128109  
     173A      1.135715   174A      1.138317   175A      1.144087  
     176A      1.150238   177A      1.164694   178A      1.167869  
     179A      1.174705   180A      1.186163   181A      1.190884  
     182A      1.195113   183A      1.203381   184A      1.207031  
     185A      1.218946   186A      1.225863   187A      1.229529  
     188A      1.238824   189A      1.248398   190A      1.250560  
     191A      1.260868   192A      1.264189   193A      1.275643  
     194A      1.280559   195A      1.302627   196A      1.305914  
     197A      1.323476   198A      1.327427   199A      1.334714  
     200A      1.342363   201A      1.355896   202A      1.358747  
     203A      1.363180   204A      1.379629   205A      1.381861  
     206A      1.388528   207A      1.395569   208A      1.401599  
     209A      1.406974   210A      1.416621   211A      1.434699  
     212A      1.439839   213A      1.447298   214A      1.450003  
     215A      1.471729   216A      1.474131   217A      1.486965  
     218A      1.500102   219A      1.511198   220A      1.522607  
     221A      1.533159   222A      1.540958   223A      1.545936  
     224A      1.548169   225A      1.559694   226A      1.571505  
     227A      1.585719   228A      1.604821   229A      1.613265  
     230A      1.617607   231A      1.628617   232A      1.641737  
     233A      1.657999   234A      1.665546   235A      1.686337  
     236A      1.692902   237A      1.703486   238A      1.714831  
     239A      1.717109   240A      1.722564   241A      1.739640  
     242A      1.744200   243A      1.760231   244A      1.773769  
     245A      1.784872   246A      1.797111   247A      1.807014  
     248A      1.815753   249A      1.827236   250A      1.831603  
     251A      1.835513   252A      1.849638   253A      1.860313  
     254A      1.872132   255A      1.890701   256A      1.901638  
     257A      1.909490   258A      1.927223   259A      1.934293  
     260A      1.955971   261A      1.961884   262A      1.968397  
     263A      1.976809   264A      2.007517   265A      2.010615  
     266A      2.027013   267A      2.045421   268A      2.047650  
     269A      2.066332   270A      2.075418   271A      2.080718  
     272A      2.096789   273A      2.099552   274A      2.118207  
     275A      2.118901   276A      2.134582   277A      2.146390  
     278A      2.159319   279A      2.167480   280A      2.180143  
     281A      2.198192   282A      2.211957   283A      2.218320  
     284A      2.226473   285A      2.240014   286A      2.242422  
     287A      2.259660   288A      2.277579   289A      2.295388  
     290A      2.301275   291A      2.314547   292A      2.325382  
     293A      2.334510   294A      2.349106   295A      2.377952  
     296A      2.385681   297A      2.443658   298A      2.452809  
     299A      2.460985   300A      2.474039   301A      2.489407  
     302A      2.491953   303A      2.518501   304A      2.548311  
     305A      2.575889   306A      2.594877   307A      2.604402  
     308A      2.646875   309A      2.656049   310A      2.675835  
     311A      2.695215   312A      2.719217   313A      2.727011  
     314A      2.748803   315A      2.773366   316A      2.776966  
     317A      2.797875   318A      2.837060   319A      2.861646  
     320A      2.865848   321A      2.876570   322A      2.892447  
     323A      2.924242   324A      2.936885   325A      2.951039  
     326A      2.967129   327A      2.978704   328A      3.051115  
     329A      3.056524   330A      3.116535   331A      3.122573  
     332A      3.137137   333A      3.165760   334A      3.211922  
     335A      3.221910   336A      3.249149   337A      3.268062  
     338A      3.324781   339A      3.342059   340A      3.389997  
     341A      3.440427   342A      3.473413   343A      3.490008  
     344A      3.506104   345A      3.509302   346A      3.544883  
     347A      3.553499   348A      3.630269   349A      3.642700  
     350A      3.647438   351A      3.656229   352A      3.670137  
     353A      3.700913   354A      3.709769   355A      3.718717  
     356A      3.780682   357A      3.803477   358A      3.813438  
     359A      3.817897   360A      3.852426   361A      3.872432  
     362A      3.906844   363A      3.932680   364A      3.957033  
     365A      3.964507   366A      3.979886   367A      3.993455  
     368A      4.003576   369A      4.022581   370A      4.067148  
     371A      4.077727   372A      4.089855   373A      4.126945  
     374A      4.135842   375A      4.142711   376A      4.154476  
     377A      4.172665   378A      4.181738   379A      4.188963  
     380A      4.218376   381A      4.224627   382A      4.236924  
     383A      4.246051   384A      4.280794   385A      4.285015  
     386A      4.307153   387A      4.310650   388A      4.346961  
     389A      4.367470   390A      4.385736   391A      4.401175  
     392A      4.410930   393A      4.438978   394A      4.464508  
     395A      4.489137   396A      4.492711   397A      4.513990  
     398A      4.534967   399A      4.553033   400A      4.557081  
     401A      4.581092   402A      4.592615   403A      4.610011  
     404A      4.621961   405A      4.627813   406A      4.653014  
     407A      4.672020   408A      4.673008   409A      4.695397  
     410A      4.714002   411A      4.723221   412A      4.734367  
     413A      4.747536   414A      4.755643   415A      4.785682  
     416A      4.802324   417A      4.830454   418A      4.845384  
     419A      4.857622   420A      4.866395   421A      4.873502  
     422A      4.887973   423A      4.917551   424A      4.929966  
     425A      4.949798   426A      4.962233   427A      4.980478  
     428A      4.990044   429A      5.014710   430A      5.030003  
     431A      5.036454   432A      5.042435   433A      5.058156  
     434A      5.073174   435A      5.090052   436A      5.126872  
     437A      5.142213   438A      5.161684   439A      5.163602  
     440A      5.207222   441A      5.218570   442A      5.253447  
     443A      5.266599   444A      5.279587   445A      5.292510  
     446A      5.331946   447A      5.337956   448A      5.365622  
     449A      5.378762   450A      5.391425   451A      5.409796  
     452A      5.426060   453A      5.431606   454A      5.449734  
     455A      5.476689   456A      5.501363   457A      5.515361  
     458A      5.533055   459A      5.546561   460A      5.563851  
     461A      5.575524   462A      5.605096   463A      5.606165  
     464A      5.633442   465A      5.646297   466A      5.655628  
     467A      5.667380   468A      5.700055   469A      5.709378  
     470A      5.728580   471A      5.748839   472A      5.759196  
     473A      5.787480   474A      5.818420   475A      5.863140  
     476A      5.867090   477A      5.899960   478A      5.972913  
     479A      6.004793   480A      6.030922   481A      6.053890  
     482A      6.108801   483A      6.126100   484A      6.139616  
     485A      6.174624   486A      6.185607   487A      6.215947  
     488A      6.237826   489A      6.250417   490A      6.264514  
     491A      6.303595   492A      6.371238   493A      6.442223  
     494A      6.474851   495A      6.526183   496A      6.707439  
     497A      6.720517   498A      6.792835   499A      6.830528  
     500A      6.859135   501A      6.871242   502A      6.954609  
     503A      6.971883   504A      6.985084   505A      7.014965  
     506A      7.080038   507A      7.122746   508A      7.156458  
     509A      7.209462   510A      7.353847   511A      7.370755  
     512A      7.405961   513A      7.470101   514A      7.541403  
     515A      7.657665   516A      7.783994   517A      7.816990  
     518A      7.847429   519A      7.858885   520A      7.883488  
     521A      7.931986   522A      7.935204   523A      7.971165  
     524A      8.035343   525A      8.130888   526A      8.167741  
     527A      8.250098   528A      8.280099   529A      8.281450  
     530A      8.362164   531A      8.394395   532A      8.597866  
     533A      8.625216   534A      8.917784   535A      9.010789  
     536A     10.042920   537A     10.121373   538A     10.238530  
     539A     10.391631   540A     10.670202   541A     10.732381  
     542A     11.064564   543A     12.031334   544A     12.499877  
     545A     13.315909   546A     14.116338   547A     16.394168  
     548A     17.928692   549A     18.712790   550A     52.930611  
     551A     54.501064   552A     67.029893  

    Final Occupation by Irrep:
              A 
    DOCC [    13 ]
    NA   [    13 ]
    NB   [    13 ]

  @DF-RHF Final Energy:  -154.14499230308584

   => Energetics <=

    Nuclear Repulsion Energy =             82.1606935157943781
    One-Electron Energy =                -372.2200509327950613
    Two-Electron Energy =                 135.9143651139148403
    Total Energy =                       -154.1449923030858429

Computation Completed


Properties will be evaluated at   0.000000,   0.000000,   0.000000 [a0]

Properties computed using the SCF density matrix


 Multipole Moments:

 ------------------------------------------------------------------------------------
     Multipole            Electronic (a.u.)      Nuclear  (a.u.)        Total (a.u.)
 ------------------------------------------------------------------------------------

 L = 1.  Multiply by 2.5417464519 to convert [e a0] to [Debye]
 Dipole X            :        -98.0511319           97.8780925           -0.1730394
 Dipole Y            :          0.8951689           -0.4419125            0.4532565
 Dipole Z            :         -0.8580516            1.3845683            0.5265167
 Magnitude           :                                                    0.7159636

 ------------------------------------------------------------------------------------

*** tstop() called on moses-razer at Sun Mar  2 04:18:55 2025
Module time:
	user time   =      94.80 seconds =       1.58 minutes
	system time =       1.36 seconds =       0.02 minutes
	total time  =         96 seconds =       1.60 minutes
Total time:
	user time   =     329.80 seconds =       5.50 minutes
	system time =       6.01 seconds =       0.10 minutes
	total time  =        336 seconds =       5.60 minutes
  Constructing Basis Sets for SAPT...

   => Loading Basis Set <=

    Name: (AUG-CC-PVTZ AUX)
    Role: RIFIT
    Keyword: DF_BASIS_SAPT
    atoms 1-2, 10-11 entry C          line   148 file /home/kchung25/anaconda3/envs/p415env/share/psi4/basis/aug-cc-pvtz-ri.gbs 
    atoms 3, 12      entry O          line   264 file /home/kchung25/anaconda3/envs/p415env/share/psi4/basis/aug-cc-pvtz-ri.gbs 
    atoms 4-9, 13-18 entry H          line    30 file /home/kchung25/anaconda3/envs/p415env/share/psi4/basis/aug-cc-pvtz-ri.gbs 

   => Loading Basis Set <=

    Name: (AUG-CC-PVTZ AUX)
    Role: JKFIT
    Keyword: DF_BASIS_ELST
    atoms 1-2, 10-11 entry C          line   162 file /home/kchung25/anaconda3/envs/p415env/share/psi4/basis/aug-cc-pvtz-jkfit.gbs 
    atoms 3, 12      entry O          line   286 file /home/kchung25/anaconda3/envs/p415env/share/psi4/basis/aug-cc-pvtz-jkfit.gbs 
    atoms 4-9, 13-18 entry H          line    70 file /home/kchung25/anaconda3/envs/p415env/share/psi4/basis/aug-cc-pvtz-jkfit.gbs 


  //>>>>>>>>>>>>>>>>>>>>>>>>>>>>>>>>>>>//
  //               SAPT2+              //
  //<<<<<<<<<<<<<<<<<<<<<<<<<<<<<<<<<<<//


*** tstart() called on moses-razer
*** at Sun Mar  2 04:18:55 2025

        SAPT2+  
    Ed Hohenstein
     6 June 2009

      Orbital Information
  --------------------------
    NSO        =       552
    NMO        =       552
    NRI        =      1188
    NOCC A     =        13
    NOCC B     =        13
    FOCC A     =         0
    FOCC B     =         0
    NVIR A     =       539
    NVIR B     =       539

    Estimated memory usage: 3939.5 MB

    Natural Orbital Cutoff:   1.000E-06
    Disp(T3) Truncation:            Yes
    CCD (vv|vv) Truncation:         Yes
    MBPT T2 Truncation:             Yes

    Monomer A: 307 virtual orbitals dropped
    Monomer B: 307 virtual orbitals dropped

    Elst10,r            =    -0.003075113398 [Eh]
    Exch10 (S^2)        =     0.005354927623 [Eh]
    Exch10              =     0.005362013670 [Eh]
    Ind20,r (A<-B)      =    -0.000460788947 [Eh]
    Ind20,r (B<-A)      =    -0.001029874666 [Eh]
    Ind20,r             =    -0.001490663613 [Eh]
    Exch-Ind20,r (A<-B) =     0.000373195272 [Eh]
    Exch-Ind20,r (B<-A) =     0.000607869439 [Eh]
    Exch-Ind20,r        =     0.000981064710 [Eh]
    Disp20              =    -0.005973553893 [Eh]
    Disp20 (NO)         =    -0.005360120835 [Eh]
    Exch-Disp20         =     0.000590605659 [Eh]
    Elst12,r            =    -0.000344325806 [Eh]
    Exch11              =     0.000043718813 [Eh]
    Exch12              =     0.000769181403 [Eh]
    Ind22               =    -0.000201521983 [Eh]
    Disp21              =     0.000317101011 [Eh]
    Disp22 (SDQ)        =     0.000121875172 [Eh]

    (i =   1 of  13)        308 seconds
    (i =   2 of  13)        597 seconds
    (i =   3 of  13)        906 seconds
    (i =   4 of  13)       1204 seconds
    (i =   5 of  13)       1668 seconds
    (i =   6 of  13)       1948 seconds
    (i =   7 of  13)       2262 seconds
    (i =   8 of  13)       2722 seconds
    (i =   9 of  13)       3082 seconds
    (i =  10 of  13)       3473 seconds
    (i =  11 of  13)       3854 seconds
    (i =  12 of  13)       4124 seconds
    (i =  13 of  13)       4455 seconds

    Disp220 (T)         =    -0.000458369179 [Eh]

    (i =   1 of  13)        241 seconds
    (i =   2 of  13)        484 seconds
    (i =   3 of  13)        726 seconds
    (i =   4 of  13)        989 seconds
    (i =   5 of  13)       1268 seconds
    (i =   6 of  13)       1534 seconds
    (i =   7 of  13)       1773 seconds
    (i =   8 of  13)       2014 seconds
    (i =   9 of  13)       2254 seconds
    (i =  10 of  13)       2493 seconds
    (i =  11 of  13)       2732 seconds
    (i =  12 of  13)       2971 seconds
    (i =  13 of  13)       3210 seconds

    Disp202 (T)         =    -0.000392160749 [Eh]

    Disp22 (T)          =    -0.000850529927 [Eh]

    Est. Disp220 (T)    =    -0.000510826729 [Eh]
    Est. Disp202 (T)    =    -0.000437041149 [Eh]

    Est. Disp22 (T)     =    -0.000947867878 [Eh]

    SAPT Results 
  --------------------------------------------------------------------------------------------------------
    Electrostatics                 -3.41943920 [mEh]      -2.14573050 [kcal/mol]      -8.97773639 [kJ/mol]
      Elst10,r                     -3.07511340 [mEh]      -1.92966279 [kcal/mol]      -8.07370911 [kJ/mol]
      Elst12,r                     -0.34432581 [mEh]      -0.21606771 [kcal/mol]      -0.90402728 [kJ/mol]

    Exchange                        6.17491389 [mEh]       3.87481696 [kcal/mol]      16.21223417 [kJ/mol]
      Exch10                        5.36201367 [mEh]       3.36471438 [kcal/mol]      14.07796495 [kJ/mol]
      Exch10(S^2)                   5.35492762 [mEh]       3.36026781 [kcal/mol]      14.05936054 [kJ/mol]
      Exch11(S^2)                   0.04371881 [mEh]       0.02743397 [kcal/mol]       0.11478373 [kJ/mol]
      Exch12(S^2)                   0.76918140 [mEh]       0.48266862 [kcal/mol]       2.01948549 [kJ/mol]

    Induction                      -0.93762784 [mEh]      -0.58837035 [kcal/mol]      -2.46174156 [kJ/mol]
      Ind20,r                      -1.49066361 [mEh]      -0.93540554 [kcal/mol]      -3.91373678 [kJ/mol]
      Ind22                        -0.20152198 [mEh]      -0.12645695 [kcal/mol]      -0.52909589 [kJ/mol]
      Exch-Ind20,r                  0.98106471 [mEh]       0.61562740 [kcal/mol]       2.57578504 [kJ/mol]
      Exch-Ind22                    0.13262959 [mEh]       0.08322632 [kcal/mol]       0.34821894 [kJ/mol]
      delta HF,r (2)               -0.35913655 [mEh]      -0.22536159 [kcal/mol]      -0.94291287 [kJ/mol]

    Dispersion                     -5.89183993 [mEh]      -3.69718537 [kcal/mol]     -15.46902360 [kJ/mol]
      Disp20                       -5.97355389 [mEh]      -3.74846166 [kcal/mol]     -15.68356359 [kJ/mol]
      Disp21                        0.31710101 [mEh]       0.19898389 [kcal/mol]       0.83254859 [kJ/mol]
      Disp22 (SDQ)                  0.12187517 [mEh]       0.07647783 [kcal/mol]       0.31998322 [kJ/mol]
      Disp22 (T)                   -0.85052993 [mEh]      -0.53371559 [kcal/mol]      -2.23306602 [kJ/mol]
      Est. Disp22 (T)              -0.94786788 [mEh]      -0.59479607 [kcal/mol]      -2.48862677 [kJ/mol]
      Exch-Disp20                   0.59060566 [mEh]       0.37061065 [kcal/mol]       1.55063494 [kJ/mol]

  Total HF                          1.41816482 [mEh]       0.88991186 [kcal/mol]       3.72339123 [kJ/mol]
  Total SAPT0                      -3.96478341 [mEh]      -2.48793915 [kcal/mol]     -10.40953741 [kJ/mol]
  Total SAPT2                      -3.56510139 [mEh]      -2.23713490 [kcal/mol]      -9.36017242 [kJ/mol]
  Total SAPT2+                     -4.07399309 [mEh]      -2.55646926 [kcal/mol]     -10.69626738 [kJ/mol]

  Special recipe for scaled SAPT0 (see Manual):
    Electrostatics sSAPT0          -3.07511340 [mEh]      -1.92966279 [kcal/mol]      -8.07370911 [kJ/mol]
    Exchange sSAPT0                 5.36201367 [mEh]       3.36471438 [kcal/mol]      14.07796495 [kJ/mol]
    Induction sSAPT0               -0.86483564 [mEh]      -0.54269255 [kcal/mol]      -2.27062565 [kJ/mol]
    Dispersion sSAPT0              -5.38060053 [mEh]      -3.37637781 [kcal/mol]     -14.12676474 [kJ/mol]
  Total sSAPT0                     -3.95853589 [mEh]      -2.48401877 [kcal/mol]     -10.39313455 [kJ/mol]
  --------------------------------------------------------------------------------------------------------

*** tstop() called on moses-razer at Sun Mar  2 06:53:45 2025
Module time:
	user time   =    9141.46 seconds =     152.36 minutes
	system time =     116.39 seconds =       1.94 minutes
	total time  =       9290 seconds =     154.83 minutes
Total time:
	user time   =    9471.45 seconds =     157.86 minutes
	system time =     122.40 seconds =       2.04 minutes
	total time  =       9626 seconds =     160.43 minutes

    Psi4 stopped on: Sunday, 02 March 2025 06:53AM
    Psi4 wall time for execution: 2:40:26.79

*** Psi4 exiting successfully. Buy a developer a beer!
