
    -----------------------------------------------------------------------
          Psi4: An Open-Source Ab Initio Electronic Structure Package
                               Psi4 1.9 release

                         Git: Rev {} zzzzzzz 


    D. G. A. Smith, L. A. Burns, A. C. Simmonett, R. M. Parrish,
    M. C. Schieber, R. Galvelis, P. Kraus, H. Kruse, R. Di Remigio,
    A. Alenaizan, A. M. James, S. Lehtola, J. P. Misiewicz, M. Scheurer,
    R. A. Shaw, J. B. Schriber, Y. Xie, Z. L. Glick, D. A. Sirianni,
    J. S. O'Brien, J. M. Waldrop, A. Kumar, E. G. Hohenstein,
    B. P. Pritchard, B. R. Brooks, H. F. Schaefer III, A. Yu. Sokolov,
    K. Patkowski, A. E. DePrince III, U. Bozkaya, R. A. King,
    F. A. Evangelista, J. M. Turney, T. D. Crawford, C. D. Sherrill,
    J. Chem. Phys. 152(18) 184108 (2020). https://doi.org/10.1063/5.0006002

                            Additional Code Authors
    E. T. Seidl, C. L. Janssen, E. F. Valeev, M. L. Leininger,
    J. F. Gonthier, R. M. Richard, H. R. McAlexander, M. Saitow, X. Wang,
    P. Verma, M. H. Lechner, A. Jiang, S. Behnle, A. G. Heide,
    M. F. Herbst, and D. L. Poole

             Previous Authors, Complete List of Code Contributors,
                       and Citations for Specific Modules
    https://github.com/psi4/psi4/blob/master/codemeta.json
    https://github.com/psi4/psi4/graphs/contributors
    http://psicode.org/psi4manual/master/introduction.html#citing-psifour

    -----------------------------------------------------------------------


    Psi4 started on: Sunday, 02 March 2025 03:08AM

    Process ID: 205917
    Host:       moses-razer
    PSIDATADIR: /home/kchung25/anaconda3/envs/psi4_19/share/psi4
    Memory:     500.0 MiB
    Threads:    1
    
  ==> Input File <==

--------------------------------------------------------------------------
MEMORY 10 GB

molecule dimer {
0 1
C   -2.155164  -0.955565   0.208662
C   -1.631256   0.226947  -0.556077
O   -1.450840   1.288410   0.360837
H   -1.083716   2.042894  -0.104265
H   -2.299215  -1.811793  -0.452297
H   -3.109149  -0.718332   0.683083
H   -1.453477  -1.239614   0.996988
H   -2.341754   0.510467  -1.345522
H   -0.682472  -0.038588  -1.043697
--
0 1
C    2.155265   0.955548  -0.208559
C    1.631287  -0.226997   0.556078
O    1.450717  -1.288342  -0.360942
H    1.083422  -2.042797   0.104070
H    2.299530   1.811659   0.452504
H    1.453509   1.239816  -0.996743
H    3.109152   0.718241  -0.683140
H    0.682556   0.038576   1.043780
H    2.341799  -0.510676   1.345454

units ang
no_reorient
no_com
symmetry c1
}

set {
basis        aug-cc-pVTZ
scf_type     df
}

energy("sapt2+")
--------------------------------------------------------------------------

  Memory set to   9.313 GiB by Python driver.

Scratch directory: /scratch/
   => Loading Basis Set <=

    Name: AUG-CC-PVTZ
    Role: ORBITAL
    Keyword: BASIS
    atoms 1-2, 10-11 entry C          line   239 file /home/kchung25/anaconda3/envs/p415env/share/psi4/basis/aug-cc-pvtz.gbs 
    atoms 3, 12      entry O          line   331 file /home/kchung25/anaconda3/envs/p415env/share/psi4/basis/aug-cc-pvtz.gbs 
    atoms 4-9, 13-18 entry H          line    40 file /home/kchung25/anaconda3/envs/p415env/share/psi4/basis/aug-cc-pvtz.gbs 

   => Loading Basis Set <=

    Name: AUG-CC-PVTZ
    Role: ORBITAL
    Keyword: BASIS
    atoms 1-2, 10-11 entry C          line   239 file /home/kchung25/anaconda3/envs/p415env/share/psi4/basis/aug-cc-pvtz.gbs 
    atoms 3, 12      entry O          line   331 file /home/kchung25/anaconda3/envs/p415env/share/psi4/basis/aug-cc-pvtz.gbs 
    atoms 4-9, 13-18 entry H          line    40 file /home/kchung25/anaconda3/envs/p415env/share/psi4/basis/aug-cc-pvtz.gbs 


  //>>>>>>>>>>>>>>>>>>>>>>>>>>>>>>>>>>>//
  //              Dimer HF             //
  //<<<<<<<<<<<<<<<<<<<<<<<<<<<<<<<<<<<//

   => Libint2 <=

    Primary   basis highest AM E, G, H:  5, 4, 3
    Auxiliary basis highest AM E, G, H:  6, 5, 4
    Onebody   basis highest AM E, G, H:  6, 5, 4
    Solid Harmonics ordering:            gaussian

*** tstart() called on moses-razer
*** at Sun Mar  2 03:08:47 2025

   => Loading Basis Set <=

    Name: AUG-CC-PVTZ
    Role: ORBITAL
    Keyword: BASIS
    atoms 1-2, 10-11 entry C          line   239 file /home/kchung25/anaconda3/envs/p415env/share/psi4/basis/aug-cc-pvtz.gbs 
    atoms 3, 12      entry O          line   331 file /home/kchung25/anaconda3/envs/p415env/share/psi4/basis/aug-cc-pvtz.gbs 
    atoms 4-9, 13-18 entry H          line    40 file /home/kchung25/anaconda3/envs/p415env/share/psi4/basis/aug-cc-pvtz.gbs 


         ---------------------------------------------------------
                                   SCF
               by Justin Turney, Rob Parrish, Andy Simmonett
                          and Daniel G. A. Smith
                              RHF Reference
                        1 Threads,   9536 MiB Core
         ---------------------------------------------------------

  ==> Geometry <==

    Molecular point group: c1
    Full point group: C1

    Geometry (in Angstrom), charge = 0, multiplicity = 1:

       Center              X                  Y                   Z               Mass       
    ------------   -----------------  -----------------  -----------------  -----------------
         C           -2.155164000000    -0.955565000000     0.208662000000    12.000000000000
         C           -1.631256000000     0.226947000000    -0.556077000000    12.000000000000
         O           -1.450840000000     1.288410000000     0.360837000000    15.994914619570
         H           -1.083716000000     2.042894000000    -0.104265000000     1.007825032230
         H           -2.299215000000    -1.811793000000    -0.452297000000     1.007825032230
         H           -3.109149000000    -0.718332000000     0.683083000000     1.007825032230
         H           -1.453477000000    -1.239614000000     0.996988000000     1.007825032230
         H           -2.341754000000     0.510467000000    -1.345522000000     1.007825032230
         H           -0.682472000000    -0.038588000000    -1.043697000000     1.007825032230
         C            2.155265000000     0.955548000000    -0.208559000000    12.000000000000
         C            1.631287000000    -0.226997000000     0.556078000000    12.000000000000
         O            1.450717000000    -1.288342000000    -0.360942000000    15.994914619570
         H            1.083422000000    -2.042797000000     0.104070000000     1.007825032230
         H            2.299530000000     1.811659000000     0.452504000000     1.007825032230
         H            1.453509000000     1.239816000000    -0.996743000000     1.007825032230
         H            3.109152000000     0.718241000000    -0.683140000000     1.007825032230
         H            0.682556000000     0.038576000000     1.043780000000     1.007825032230
         H            2.341799000000    -0.510676000000     1.345454000000     1.007825032230

  Running in c1 symmetry.

  Rotational constants: A =      0.14371  B =      0.05375  C =      0.04350 [cm^-1]
  Rotational constants: A =   4308.38109  B =   1611.53395  C =   1303.98286 [MHz]
  Nuclear repulsion =  258.919420773785589

  Charge       = 0
  Multiplicity = 1
  Electrons    = 52
  Nalpha       = 26
  Nbeta        = 26

  ==> Algorithm <==

  SCF Algorithm Type is DF.
  DIIS enabled.
  MOM disabled.
  Fractional occupation disabled.
  Guess Type is SAD.
  Energy threshold   = 1.00e-08
  Density threshold  = 1.00e-08
  Integral threshold = 1.00e-12

  ==> Primary Basis <==

  Basis Set: AUG-CC-PVTZ
    Blend: AUG-CC-PVTZ
    Number of shells: 192
    Number of basis functions: 552
    Number of Cartesian functions: 630
    Spherical Harmonics?: true
    Max angular momentum: 3

   => Loading Basis Set <=

    Name: (AUG-CC-PVTZ AUX)
    Role: JKFIT
    Keyword: DF_BASIS_SCF
    atoms 1-2, 10-11 entry C          line   162 file /home/kchung25/anaconda3/envs/p415env/share/psi4/basis/aug-cc-pvtz-jkfit.gbs 
    atoms 3, 12      entry O          line   286 file /home/kchung25/anaconda3/envs/p415env/share/psi4/basis/aug-cc-pvtz-jkfit.gbs 
    atoms 4-9, 13-18 entry H          line    70 file /home/kchung25/anaconda3/envs/p415env/share/psi4/basis/aug-cc-pvtz-jkfit.gbs 

  ==> Integral Setup <==

  ==> DiskDFJK: Density-Fitted J/K Matrices <==

    J tasked:                  Yes
    K tasked:                  Yes
    wK tasked:                  No
    OpenMP threads:              1
    Integrals threads:           1
    Memory [MiB]:             7152
    Algorithm:                Core
    Integral Cache:           SAVE
    Schwarz Cutoff:          1E-12
    Fitting Condition:       1E-10

   => Auxiliary Basis Set <=

  Basis Set: (AUG-CC-PVTZ AUX)
    Blend: AUG-CC-PVTZ-JKFIT
    Number of shells: 348
    Number of basis functions: 1176
    Number of Cartesian functions: 1446
    Spherical Harmonics?: true
    Max angular momentum: 4

  Minimum eigenvalue in the overlap matrix is 6.4603741513E-06.
  Reciprocal condition number of the overlap matrix is 3.3427384097E-07.
    Using symmetric orthogonalization.

  ==> Pre-Iterations <==

  SCF Guess: Superposition of Atomic Densities via on-the-fly atomic UHF (no occupation information).

   -------------------------
    Irrep   Nso     Nmo    
   -------------------------
     A        552     552 
   -------------------------
    Total     552     552
   -------------------------

  ==> Iterations <==

                           Total Energy        Delta E     RMS |[F,P]|

   @DF-RHF iter SAD:  -307.08555365776164   -3.07086e+02   0.00000e+00 
   @DF-RHF iter   1:  -308.00023772509780   -9.14684e-01   1.33741e-03 DIIS/ADIIS
   @DF-RHF iter   2:  -308.22376344019631   -2.23526e-01   7.27679e-04 DIIS/ADIIS
   @DF-RHF iter   3:  -308.28528695226908   -6.15235e-02   1.20143e-04 DIIS/ADIIS
   @DF-RHF iter   4:  -308.28849711631386   -3.21016e-03   4.44602e-05 DIIS
   @DF-RHF iter   5:  -308.28884052004850   -3.43404e-04   8.23844e-06 DIIS
   @DF-RHF iter   6:  -308.28886004815166   -1.95281e-05   1.87447e-06 DIIS
   @DF-RHF iter   7:  -308.28886124607118   -1.19792e-06   5.79788e-07 DIIS
   @DF-RHF iter   8:  -308.28886134330594   -9.72348e-08   1.56737e-07 DIIS
   @DF-RHF iter   9:  -308.28886135247967   -9.17373e-09   3.80429e-08 DIIS
   @DF-RHF iter  10:  -308.28886135306908   -5.89409e-10   7.10389e-09 DIIS
  Energy and wave function converged.


  ==> Post-Iterations <==

    Orbital Energies [Eh]
    ---------------------

    Doubly Occupied:                                                      

       1A    -20.555619     2A    -20.555618     3A    -11.269154  
       4A    -11.269152     5A    -11.212439     6A    -11.212437  
       7A     -1.362223     8A     -1.360613     9A     -1.014501  
      10A     -1.013618    11A     -0.832977    12A     -0.832137  
      13A     -0.703486    14A     -0.701433    15A     -0.662229  
      16A     -0.627227    17A     -0.575538    18A     -0.572877  
      19A     -0.534600    20A     -0.534485    21A     -0.529621  
      22A     -0.521830    23A     -0.491087    24A     -0.484914  
      25A     -0.451227    26A     -0.428351  

    Virtual:                                                              

      27A      0.028617    28A      0.032574    29A      0.037605  
      30A      0.042048    31A      0.051115    32A      0.052471  
      33A      0.055734    34A      0.065347    35A      0.071133  
      36A      0.072822    37A      0.078699    38A      0.089195  
      39A      0.110304    40A      0.115916    41A      0.120142  
      42A      0.124438    43A      0.130988    44A      0.134008  
      45A      0.139985    46A      0.143626    47A      0.146491  
      48A      0.152479    49A      0.161154    50A      0.161461  
      51A      0.167790    52A      0.176810    53A      0.181983  
      54A      0.191288    55A      0.201598    56A      0.203727  
      57A      0.220411    58A      0.223717    59A      0.235040  
      60A      0.245486    61A      0.253528    62A      0.256447  
      63A      0.270049    64A      0.274574    65A      0.282851  
      66A      0.292481    67A      0.299272    68A      0.300333  
      69A      0.311376    70A      0.312526    71A      0.319296  
      72A      0.319498    73A      0.329306    74A      0.331599  
      75A      0.332843    76A      0.340005    77A      0.342550  
      78A      0.345247    79A      0.355559    80A      0.358139  
      81A      0.372415    82A      0.373743    83A      0.379494  
      84A      0.401240    85A      0.401959    86A      0.407335  
      87A      0.409140    88A      0.411295    89A      0.418098  
      90A      0.423324    91A      0.427948    92A      0.434463  
      93A      0.439446    94A      0.440492    95A      0.445850  
      96A      0.452015    97A      0.456664    98A      0.459491  
      99A      0.469669   100A      0.474568   101A      0.477773  
     102A      0.478674   103A      0.486422   104A      0.494188  
     105A      0.498727   106A      0.504645   107A      0.507345  
     108A      0.516071   109A      0.516615   110A      0.523086  
     111A      0.530757   112A      0.533006   113A      0.537426  
     114A      0.549696   115A      0.556326   116A      0.562219  
     117A      0.567072   118A      0.580102   119A      0.584425  
     120A      0.586095   121A      0.596473   122A      0.605939  
     123A      0.606360   124A      0.610559   125A      0.625315  
     126A      0.628586   127A      0.636955   128A      0.642740  
     129A      0.648715   130A      0.651408   131A      0.674769  
     132A      0.688631   133A      0.695244   134A      0.730667  
     135A      0.735698   136A      0.740818   137A      0.745226  
     138A      0.762622   139A      0.782804   140A      0.782870  
     141A      0.809029   142A      0.810951   143A      0.816325  
     144A      0.819721   145A      0.838693   146A      0.845121  
     147A      0.845617   148A      0.853143   149A      0.856336  
     150A      0.870634   151A      0.870911   152A      0.879377  
     153A      0.884469   154A      0.886575   155A      0.895728  
     156A      0.902097   157A      0.917869   158A      0.926980  
     159A      0.931555   160A      0.932541   161A      0.941616  
     162A      0.949100   163A      0.959176   164A      0.982366  
     165A      0.983049   166A      0.987666   167A      0.994151  
     168A      0.996384   169A      0.996859   170A      1.002394  
     171A      1.014467   172A      1.017039   173A      1.017156  
     174A      1.035433   175A      1.039309   176A      1.046372  
     177A      1.057459   178A      1.067196   179A      1.071900  
     180A      1.081509   181A      1.091456   182A      1.091537  
     183A      1.099752   184A      1.105495   185A      1.109690  
     186A      1.118494   187A      1.120113   188A      1.135605  
     189A      1.145773   190A      1.150024   191A      1.152363  
     192A      1.154961   193A      1.168577   194A      1.170358  
     195A      1.185231   196A      1.193072   197A      1.203679  
     198A      1.206312   199A      1.216994   200A      1.219579  
     201A      1.232521   202A      1.237234   203A      1.243833  
     204A      1.246354   205A      1.252719   206A      1.266872  
     207A      1.278312   208A      1.288355   209A      1.297639  
     210A      1.302119   211A      1.310566   212A      1.318390  
     213A      1.336249   214A      1.338135   215A      1.346455  
     216A      1.351405   217A      1.371863   218A      1.372366  
     219A      1.386799   220A      1.395148   221A      1.404942  
     222A      1.407019   223A      1.429845   224A      1.444533  
     225A      1.454383   226A      1.464914   227A      1.485663  
     228A      1.490121   229A      1.499638   230A      1.508495  
     231A      1.513194   232A      1.519527   233A      1.530878  
     234A      1.536970   235A      1.559840   236A      1.566056  
     237A      1.580114   238A      1.589677   239A      1.604598  
     240A      1.611309   241A      1.614548   242A      1.625577  
     243A      1.636820   244A      1.638381   245A      1.644202  
     246A      1.645686   247A      1.675755   248A      1.688215  
     249A      1.688924   250A      1.700294   251A      1.701168  
     252A      1.709517   253A      1.714694   254A      1.720478  
     255A      1.733150   256A      1.738295   257A      1.745746  
     258A      1.759586   259A      1.773795   260A      1.784816  
     261A      1.786351   262A      1.793180   263A      1.796583  
     264A      1.836451   265A      1.841699   266A      1.848404  
     267A      1.854171   268A      1.855956   269A      1.862044  
     270A      1.884679   271A      1.898486   272A      1.900764  
     273A      1.928545   274A      1.932060   275A      1.939384  
     276A      1.962427   277A      1.969216   278A      1.983621  
     279A      1.985660   280A      1.996984   281A      2.007761  
     282A      2.011851   283A      2.026344   284A      2.070898  
     285A      2.071298   286A      2.079748   287A      2.080996  
     288A      2.106909   289A      2.108248   290A      2.109253  
     291A      2.119310   292A      2.132653   293A      2.140379  
     294A      2.140888   295A      2.185196   296A      2.186103  
     297A      2.189686   298A      2.228594   299A      2.247782  
     300A      2.257706   301A      2.260004   302A      2.267386  
     303A      2.276401   304A      2.297754   305A      2.298691  
     306A      2.317064   307A      2.329144   308A      2.334363  
     309A      2.364718   310A      2.393573   311A      2.406880  
     312A      2.441269   313A      2.444860   314A      2.474890  
     315A      2.486962   316A      2.500405   317A      2.541804  
     318A      2.574207   319A      2.580637   320A      2.609158  
     321A      2.647575   322A      2.662033   323A      2.685797  
     324A      2.698872   325A      2.716645   326A      2.746486  
     327A      2.782269   328A      2.800192   329A      2.848944  
     330A      2.865043   331A      2.902463   332A      2.910124  
     333A      2.935687   334A      2.947453   335A      2.955410  
     336A      2.965233   337A      2.972406   338A      2.995300  
     339A      3.030594   340A      3.046061   341A      3.063066  
     342A      3.077983   343A      3.104414   344A      3.123164  
     345A      3.138427   346A      3.152334   347A      3.199749  
     348A      3.232931   349A      3.258623   350A      3.306150  
     351A      3.379113   352A      3.425864   353A      3.478531  
     354A      3.491697   355A      3.512438   356A      3.515091  
     357A      3.520632   358A      3.532020   359A      3.568849  
     360A      3.571911   361A      3.604038   362A      3.615699  
     363A      3.619581   364A      3.668960   365A      3.674481  
     366A      3.690043   367A      3.701712   368A      3.712028  
     369A      3.722758   370A      3.730728   371A      3.752566  
     372A      3.761774   373A      3.776432   374A      3.796945  
     375A      3.821868   376A      3.824894   377A      3.843731  
     378A      3.854914   379A      3.880875   380A      3.885142  
     381A      3.896414   382A      3.915613   383A      3.942852  
     384A      3.954941   385A      3.985052   386A      3.989516  
     387A      3.989797   388A      3.998261   389A      4.000166  
     390A      4.006243   391A      4.025675   392A      4.050174  
     393A      4.056939   394A      4.067960   395A      4.094190  
     396A      4.098636   397A      4.111245   398A      4.119483  
     399A      4.134823   400A      4.161453   401A      4.165820  
     402A      4.171506   403A      4.184215   404A      4.202846  
     405A      4.203492   406A      4.216983   407A      4.243495  
     408A      4.253630   409A      4.280885   410A      4.296554  
     411A      4.303316   412A      4.308566   413A      4.337649  
     414A      4.341831   415A      4.380291   416A      4.401593  
     417A      4.403685   418A      4.429251   419A      4.435990  
     420A      4.458311   421A      4.478375   422A      4.512464  
     423A      4.524201   424A      4.537693   425A      4.553411  
     426A      4.560848   427A      4.573339   428A      4.608104  
     429A      4.624521   430A      4.627965   431A      4.649333  
     432A      4.655326   433A      4.691903   434A      4.698047  
     435A      4.713518   436A      4.721170   437A      4.751054  
     438A      4.752128   439A      4.795332   440A      4.805165  
     441A      4.815102   442A      4.853235   443A      4.853705  
     444A      4.855851   445A      4.868695   446A      4.881245  
     447A      4.898809   448A      4.931248   449A      4.949209  
     450A      4.973983   451A      4.985011   452A      5.003333  
     453A      5.050921   454A      5.068317   455A      5.079851  
     456A      5.099013   457A      5.100957   458A      5.116158  
     459A      5.119955   460A      5.129947   461A      5.144766  
     462A      5.148794   463A      5.187335   464A      5.188251  
     465A      5.213620   466A      5.223670   467A      5.241901  
     468A      5.243364   469A      5.291297   470A      5.303577  
     471A      5.337275   472A      5.355115   473A      5.357490  
     474A      5.386704   475A      5.387083   476A      5.421286  
     477A      5.436457   478A      5.452374   479A      5.487943  
     480A      5.499607   481A      5.515960   482A      5.548695  
     483A      5.564203   484A      5.569673   485A      5.583463  
     486A      5.607317   487A      5.608621   488A      5.646756  
     489A      5.679567   490A      5.709195   491A      5.763872  
     492A      5.772781   493A      5.775378   494A      5.814592  
     495A      5.822111   496A      5.835349   497A      5.852163  
     498A      5.857843   499A      6.022455   500A      6.031961  
     501A      6.085473   502A      6.099987   503A      6.100294  
     504A      6.129964   505A      6.167080   506A      6.187716  
     507A      6.235848   508A      6.259174   509A      6.269681  
     510A      6.278958   511A      6.310750   512A      6.341451  
     513A      6.441129   514A      6.479580   515A      6.718969  
     516A      6.739100   517A      6.799909   518A      6.803698  
     519A      6.843804   520A      6.847389   521A      6.906833  
     522A      6.939022   523A      7.000957   524A      7.001900  
     525A      7.014469   526A      7.023558   527A      7.191749  
     528A      7.225664   529A      7.371834   530A      7.384415  
     531A      7.424423   532A      7.424779   533A      7.535779  
     534A      7.559370   535A      7.561155   536A      7.582109  
     537A      7.629301   538A      7.656167   539A      7.832944  
     540A      7.884116   541A      7.996710   542A      7.998679  
     543A      8.281665   544A      8.318232   545A      8.641740  
     546A      8.652706   547A     16.386972   548A     16.412282  
     549A     18.117530   550A     18.158856   551A     18.427687  
     552A     18.735178  

    Final Occupation by Irrep:
              A 
    DOCC [    26 ]
    NA   [    26 ]
    NB   [    26 ]

  @DF-RHF Final Energy:  -308.28886135306908

   => Energetics <=

    Nuclear Repulsion Energy =            258.9194207737855891
    One-Electron Energy =                -933.7977742440504016
    Two-Electron Energy =                 366.5894921171956753
    Total Energy =                       -308.2888613530690805

Computation Completed


Properties will be evaluated at   0.000000,   0.000000,   0.000000 [a0]

Properties computed using the SCF density matrix


 Multipole Moments:

 ------------------------------------------------------------------------------------
     Multipole            Electronic (a.u.)      Nuclear  (a.u.)        Total (a.u.)
 ------------------------------------------------------------------------------------

 L = 1.  Multiply by 2.5417464519 to convert [e a0] to [Debye]
 Dipole X            :         -0.0000154           -0.0000132           -0.0000287
 Dipole Y            :         -0.0000118           -0.0000094           -0.0000212
 Dipole Z            :         -0.0000153           -0.0000019           -0.0000172
 Magnitude           :                                                    0.0000396

 ------------------------------------------------------------------------------------

*** tstop() called on moses-razer at Sun Mar  2 03:11:19 2025
Module time:
	user time   =     148.28 seconds =       2.47 minutes
	system time =       4.25 seconds =       0.07 minutes
	total time  =        152 seconds =       2.53 minutes
Total time:
	user time   =     148.28 seconds =       2.47 minutes
	system time =       4.25 seconds =       0.07 minutes
	total time  =        152 seconds =       2.53 minutes

  //>>>>>>>>>>>>>>>>>>>>>>>>>>>>>>>>>>>//
  //            Monomer A HF           //
  //<<<<<<<<<<<<<<<<<<<<<<<<<<<<<<<<<<<//

   => Libint2 <=

    Primary   basis highest AM E, G, H:  5, 4, 3
    Auxiliary basis highest AM E, G, H:  6, 5, 4
    Onebody   basis highest AM E, G, H:  6, 5, 4
    Solid Harmonics ordering:            gaussian

*** tstart() called on moses-razer
*** at Sun Mar  2 03:11:19 2025

   => Loading Basis Set <=

    Name: AUG-CC-PVTZ
    Role: ORBITAL
    Keyword: BASIS
    atoms 1-2, 10-11 entry C          line   239 file /home/kchung25/anaconda3/envs/p415env/share/psi4/basis/aug-cc-pvtz.gbs 
    atoms 3, 12      entry O          line   331 file /home/kchung25/anaconda3/envs/p415env/share/psi4/basis/aug-cc-pvtz.gbs 
    atoms 4-9, 13-18 entry H          line    40 file /home/kchung25/anaconda3/envs/p415env/share/psi4/basis/aug-cc-pvtz.gbs 


         ---------------------------------------------------------
                                   SCF
               by Justin Turney, Rob Parrish, Andy Simmonett
                          and Daniel G. A. Smith
                              RHF Reference
                        1 Threads,   9536 MiB Core
         ---------------------------------------------------------

  ==> Geometry <==

    Molecular point group: c1
    Full point group: C1

    Geometry (in Angstrom), charge = 0, multiplicity = 1:

       Center              X                  Y                   Z               Mass       
    ------------   -----------------  -----------------  -----------------  -----------------
         C           -2.155164000000    -0.955565000000     0.208662000000    12.000000000000
         C           -1.631256000000     0.226947000000    -0.556077000000    12.000000000000
         O           -1.450840000000     1.288410000000     0.360837000000    15.994914619570
         H           -1.083716000000     2.042894000000    -0.104265000000     1.007825032230
         H           -2.299215000000    -1.811793000000    -0.452297000000     1.007825032230
         H           -3.109149000000    -0.718332000000     0.683083000000     1.007825032230
         H           -1.453477000000    -1.239614000000     0.996988000000     1.007825032230
         H           -2.341754000000     0.510467000000    -1.345522000000     1.007825032230
         H           -0.682472000000    -0.038588000000    -1.043697000000     1.007825032230
      Gh(C)           2.155265000000     0.955548000000    -0.208559000000    12.000000000000
      Gh(C)           1.631287000000    -0.226997000000     0.556078000000    12.000000000000
      Gh(O)           1.450717000000    -1.288342000000    -0.360942000000    15.994914619570
      Gh(H)           1.083422000000    -2.042797000000     0.104070000000     1.007825032230
      Gh(H)           2.299530000000     1.811659000000     0.452504000000     1.007825032230
      Gh(H)           1.453509000000     1.239816000000    -0.996743000000     1.007825032230
      Gh(H)           3.109152000000     0.718241000000    -0.683140000000     1.007825032230
      Gh(H)           0.682556000000     0.038576000000     1.043780000000     1.007825032230
      Gh(H)           2.341799000000    -0.510676000000     1.345454000000     1.007825032230

  Running in c1 symmetry.

  Rotational constants: A =      0.14371  B =      0.05375  C =      0.04350 [cm^-1]
  Rotational constants: A =   4308.38109  B =   1611.53395  C =   1303.98286 [MHz]
  Nuclear repulsion =   82.223392813009241

  Charge       = 0
  Multiplicity = 1
  Electrons    = 26
  Nalpha       = 13
  Nbeta        = 13

  ==> Algorithm <==

  SCF Algorithm Type is DF.
  DIIS enabled.
  MOM disabled.
  Fractional occupation disabled.
  Guess Type is SAD.
  Energy threshold   = 1.00e-08
  Density threshold  = 1.00e-08
  Integral threshold = 1.00e-12

  ==> Primary Basis <==

  Basis Set: AUG-CC-PVTZ
    Blend: AUG-CC-PVTZ
    Number of shells: 192
    Number of basis functions: 552
    Number of Cartesian functions: 630
    Spherical Harmonics?: true
    Max angular momentum: 3

   => Loading Basis Set <=

    Name: (AUG-CC-PVTZ AUX)
    Role: JKFIT
    Keyword: DF_BASIS_SCF
    atoms 1-2, 10-11 entry C          line   162 file /home/kchung25/anaconda3/envs/p415env/share/psi4/basis/aug-cc-pvtz-jkfit.gbs 
    atoms 3, 12      entry O          line   286 file /home/kchung25/anaconda3/envs/p415env/share/psi4/basis/aug-cc-pvtz-jkfit.gbs 
    atoms 4-9, 13-18 entry H          line    70 file /home/kchung25/anaconda3/envs/p415env/share/psi4/basis/aug-cc-pvtz-jkfit.gbs 

  ==> Integral Setup <==

  ==> DiskDFJK: Density-Fitted J/K Matrices <==

    J tasked:                  Yes
    K tasked:                  Yes
    wK tasked:                  No
    OpenMP threads:              1
    Integrals threads:           1
    Memory [MiB]:             7152
    Algorithm:                Core
    Integral Cache:           LOAD
    Schwarz Cutoff:          1E-12
    Fitting Condition:       1E-10

   => Auxiliary Basis Set <=

  Basis Set: (AUG-CC-PVTZ AUX)
    Blend: AUG-CC-PVTZ-JKFIT
    Number of shells: 348
    Number of basis functions: 1176
    Number of Cartesian functions: 1446
    Spherical Harmonics?: true
    Max angular momentum: 4

  Minimum eigenvalue in the overlap matrix is 6.4603741513E-06.
  Reciprocal condition number of the overlap matrix is 3.3427384097E-07.
    Using symmetric orthogonalization.

  ==> Pre-Iterations <==

  SCF Guess: Superposition of Atomic Densities via on-the-fly atomic UHF (no occupation information).

   -------------------------
    Irrep   Nso     Nmo    
   -------------------------
     A        552     552 
   -------------------------
    Total     552     552
   -------------------------

  ==> Iterations <==

                           Total Energy        Delta E     RMS |[F,P]|

   @DF-RHF iter SAD:  -153.44553547398203   -1.53446e+02   0.00000e+00 
   @DF-RHF iter   1:  -153.99876120825297   -5.53226e-01   9.60457e-04 DIIS/ADIIS
   @DF-RHF iter   2:  -154.11081943281241   -1.12058e-01   5.34872e-04 DIIS/ADIIS
   @DF-RHF iter   3:  -154.14380734015455   -3.29879e-02   8.45166e-05 DIIS
   @DF-RHF iter   4:  -154.14540338895301   -1.59605e-03   3.24415e-05 DIIS
   @DF-RHF iter   5:  -154.14558829534471   -1.84906e-04   5.76133e-06 DIIS
   @DF-RHF iter   6:  -154.14559789117868   -9.59583e-06   1.27326e-06 DIIS
   @DF-RHF iter   7:  -154.14559844537905   -5.54200e-07   3.90362e-07 DIIS
   @DF-RHF iter   8:  -154.14559848885906   -4.34800e-08   1.05104e-07 DIIS
   @DF-RHF iter   9:  -154.14559849303379   -4.17472e-09   2.53342e-08 DIIS
   @DF-RHF iter  10:  -154.14559849329729   -2.63498e-10   4.82263e-09 DIIS
  Energy and wave function converged.


  ==> Post-Iterations <==

    Orbital Energies [Eh]
    ---------------------

    Doubly Occupied:                                                      

       1A    -20.555824     2A    -11.273922     3A    -11.210779  
       4A     -1.360917     5A     -1.014140     6A     -0.832962  
       7A     -0.702570     8A     -0.645808     9A     -0.573660  
      10A     -0.533350    11A     -0.523492    12A     -0.489174  
      13A     -0.440900  

    Virtual:                                                              

      14A      0.021374    15A      0.032211    16A      0.035830  
      17A      0.038676    18A      0.050771    19A      0.052210  
      20A      0.055250    21A      0.063947    22A      0.068572  
      23A      0.072979    24A      0.078043    25A      0.085055  
      26A      0.095232    27A      0.106230    28A      0.116541  
      29A      0.118511    30A      0.122766    31A      0.127125  
      32A      0.131637    33A      0.140236    34A      0.141870  
      35A      0.146652    36A      0.148757    37A      0.160839  
      38A      0.161788    39A      0.171710    40A      0.178518  
      41A      0.186505    42A      0.196248    43A      0.199728  
      44A      0.208694    45A      0.215351    46A      0.232813  
      47A      0.237553    48A      0.250109    49A      0.252195  
      50A      0.258621    51A      0.273978    52A      0.276199  
      53A      0.279869    54A      0.285769    55A      0.299532  
      56A      0.302120    57A      0.304806    58A      0.315786  
      59A      0.321908    60A      0.324849    61A      0.329787  
      62A      0.332581    63A      0.336308    64A      0.339477  
      65A      0.342372    66A      0.352720    67A      0.354980  
      68A      0.360469    69A      0.372637    70A      0.377382  
      71A      0.380191    72A      0.390624    73A      0.399791  
      74A      0.406540    75A      0.410862    76A      0.415459  
      77A      0.420867    78A      0.425940    79A      0.430417  
      80A      0.433729    81A      0.441140    82A      0.449625  
      83A      0.454882    84A      0.462700    85A      0.463328  
      86A      0.467397    87A      0.473277    88A      0.480556  
      89A      0.490874    90A      0.493238    91A      0.495127  
      92A      0.499907    93A      0.506820    94A      0.517551  
      95A      0.518489    96A      0.522973    97A      0.532738  
      98A      0.536728    99A      0.539350   100A      0.549027  
     101A      0.562215   102A      0.567262   103A      0.571422  
     104A      0.581859   105A      0.587044   106A      0.593280  
     107A      0.605579   108A      0.610496   109A      0.619512  
     110A      0.622106   111A      0.625058   112A      0.632731  
     113A      0.641783   114A      0.647614   115A      0.653718  
     116A      0.664198   117A      0.668632   118A      0.678322  
     119A      0.685026   120A      0.695128   121A      0.704135  
     122A      0.716024   123A      0.724863   124A      0.742150  
     125A      0.756139   126A      0.758431   127A      0.769295  
     128A      0.792077   129A      0.800995   130A      0.815175  
     131A      0.817848   132A      0.829117   133A      0.837578  
     134A      0.843167   135A      0.867350   136A      0.873069  
     137A      0.880739   138A      0.887005   139A      0.893708  
     140A      0.900189   141A      0.908863   142A      0.914519  
     143A      0.917668   144A      0.932471   145A      0.941964  
     146A      0.960466   147A      0.965126   148A      0.976273  
     149A      0.978866   150A      0.986888   151A      0.994617  
     152A      1.000091   153A      1.015763   154A      1.017564  
     155A      1.021795   156A      1.025454   157A      1.042136  
     158A      1.048265   159A      1.052992   160A      1.056138  
     161A      1.064689   162A      1.074477   163A      1.081130  
     164A      1.087834   165A      1.094458   166A      1.101893  
     167A      1.105410   168A      1.110353   169A      1.117564  
     170A      1.121452   171A      1.132828   172A      1.141790  
     173A      1.144403   174A      1.151347   175A      1.158332  
     176A      1.168348   177A      1.173850   178A      1.183972  
     179A      1.193676   180A      1.197492   181A      1.200068  
     182A      1.213208   183A      1.216941   184A      1.222961  
     185A      1.226939   186A      1.237795   187A      1.246377  
     188A      1.247423   189A      1.250880   190A      1.261810  
     191A      1.276806   192A      1.284078   193A      1.288475  
     194A      1.298883   195A      1.311167   196A      1.316905  
     197A      1.322198   198A      1.322478   199A      1.332122  
     200A      1.348807   201A      1.356124   202A      1.365109  
     203A      1.375568   204A      1.385589   205A      1.394273  
     206A      1.405245   207A      1.406846   208A      1.415589  
     209A      1.422332   210A      1.443901   211A      1.451016  
     212A      1.453162   213A      1.474244   214A      1.488974  
     215A      1.499121   216A      1.508790   217A      1.516521  
     218A      1.520873   219A      1.535803   220A      1.546261  
     221A      1.562315   222A      1.566053   223A      1.576252  
     224A      1.579449   225A      1.593465   226A      1.595141  
     227A      1.604180   228A      1.615410   229A      1.630945  
     230A      1.640619   231A      1.643769   232A      1.654405  
     233A      1.665622   234A      1.676848   235A      1.677451  
     236A      1.691152   237A      1.706464   238A      1.721423  
     239A      1.731514   240A      1.738038   241A      1.745315  
     242A      1.761173   243A      1.775032   244A      1.786603  
     245A      1.802072   246A      1.807943   247A      1.810656  
     248A      1.816559   249A      1.835066   250A      1.845518  
     251A      1.861346   252A      1.876280   253A      1.881275  
     254A      1.897710   255A      1.905751   256A      1.915089  
     257A      1.925738   258A      1.934791   259A      1.954504  
     260A      1.967430   261A      1.976557   262A      1.985164  
     263A      2.003943   264A      2.015470   265A      2.036665  
     266A      2.041466   267A      2.053115   268A      2.061374  
     269A      2.066199   270A      2.079832   271A      2.088928  
     272A      2.107291   273A      2.121127   274A      2.125776  
     275A      2.134029   276A      2.154655   277A      2.166458  
     278A      2.168804   279A      2.175721   280A      2.189035  
     281A      2.212370   282A      2.224339   283A      2.239491  
     284A      2.246484   285A      2.255343   286A      2.267064  
     287A      2.288842   288A      2.293191   289A      2.299154  
     290A      2.314912   291A      2.331134   292A      2.345759  
     293A      2.389722   294A      2.396795   295A      2.405917  
     296A      2.428534   297A      2.444021   298A      2.453391  
     299A      2.476418   300A      2.481929   301A      2.489731  
     302A      2.526313   303A      2.554783   304A      2.596434  
     305A      2.604007   306A      2.634356   307A      2.654818  
     308A      2.667111   309A      2.704934   310A      2.722502  
     311A      2.737262   312A      2.749367   313A      2.761775  
     314A      2.767517   315A      2.804330   316A      2.819109  
     317A      2.838899   318A      2.850630   319A      2.870572  
     320A      2.889539   321A      2.897984   322A      2.935054  
     323A      2.946998   324A      2.969231   325A      2.994586  
     326A      3.000690   327A      3.027201   328A      3.062426  
     329A      3.093792   330A      3.123989   331A      3.132872  
     332A      3.147600   333A      3.175301   334A      3.217191  
     335A      3.227521   336A      3.274047   337A      3.297991  
     338A      3.329468   339A      3.352093   340A      3.414979  
     341A      3.436513   342A      3.491883   343A      3.501925  
     344A      3.531683   345A      3.546705   346A      3.575356  
     347A      3.589853   348A      3.616045   349A      3.638934  
     350A      3.654695   351A      3.681689   352A      3.701288  
     353A      3.721832   354A      3.727772   355A      3.756816  
     356A      3.789829   357A      3.796869   358A      3.837141  
     359A      3.849076   360A      3.869521   361A      3.889666  
     362A      3.916623   363A      3.946067   364A      3.977159  
     365A      3.993810   366A      4.002530   367A      4.010063  
     368A      4.027170   369A      4.047604   370A      4.079608  
     371A      4.108648   372A      4.120216   373A      4.133501  
     374A      4.157673   375A      4.163857   376A      4.181534  
     377A      4.203500   378A      4.211608   379A      4.220668  
     380A      4.238857   381A      4.242400   382A      4.259940  
     383A      4.270801   384A      4.296842   385A      4.320882  
     386A      4.328056   387A      4.350134   388A      4.357328  
     389A      4.381845   390A      4.401239   391A      4.421933  
     392A      4.440472   393A      4.453467   394A      4.471301  
     395A      4.483656   396A      4.498934   397A      4.528804  
     398A      4.547683   399A      4.560536   400A      4.565274  
     401A      4.583246   402A      4.609047   403A      4.627054  
     404A      4.638069   405A      4.666213   406A      4.679324  
     407A      4.682344   408A      4.691552   409A      4.712599  
     410A      4.716761   411A      4.745258   412A      4.752262  
     413A      4.773510   414A      4.800395   415A      4.814264  
     416A      4.825851   417A      4.839669   418A      4.861990  
     419A      4.869579   420A      4.879210   421A      4.901833  
     422A      4.913439   423A      4.930777   424A      4.952607  
     425A      4.967196   426A      4.986477   427A      4.991311  
     428A      5.000387   429A      5.025873   430A      5.057049  
     431A      5.068765   432A      5.083363   433A      5.103338  
     434A      5.119988   435A      5.126151   436A      5.144738  
     437A      5.163621   438A      5.174412   439A      5.192690  
     440A      5.203771   441A      5.217919   442A      5.242868  
     443A      5.258982   444A      5.280867   445A      5.293579  
     446A      5.341114   447A      5.353869   448A      5.367292  
     449A      5.396961   450A      5.407547   451A      5.420124  
     452A      5.431725   453A      5.438172   454A      5.450841  
     455A      5.487800   456A      5.510103   457A      5.512729  
     458A      5.539242   459A      5.548460   460A      5.567030  
     461A      5.592415   462A      5.595687   463A      5.615653  
     464A      5.628715   465A      5.646878   466A      5.681087  
     467A      5.721368   468A      5.741735   469A      5.742089  
     470A      5.767706   471A      5.788430   472A      5.817785  
     473A      5.826809   474A      5.839208   475A      5.858225  
     476A      5.917589   477A      5.976428   478A      6.017867  
     479A      6.020552   480A      6.045942   481A      6.072402  
     482A      6.095387   483A      6.115001   484A      6.143514  
     485A      6.172579   486A      6.202480   487A      6.225561  
     488A      6.248698   489A      6.275607   490A      6.293973  
     491A      6.307526   492A      6.341581   493A      6.456868  
     494A      6.470774   495A      6.560561   496A      6.738770  
     497A      6.812614   498A      6.819000   499A      6.841407  
     500A      6.886031   501A      6.909455   502A      6.942210  
     503A      7.002813   504A      7.025194   505A      7.054452  
     506A      7.107573   507A      7.164399   508A      7.208232  
     509A      7.227166   510A      7.325578   511A      7.379429  
     512A      7.425815   513A      7.550110   514A      7.568131  
     515A      7.642772   516A      7.821177   517A      7.840554  
     518A      7.855944   519A      7.863866   520A      7.894257  
     521A      7.916316   522A      7.925573   523A      7.986133  
     524A      8.019853   525A      8.184265   526A      8.220896  
     527A      8.241108   528A      8.297684   529A      8.322196  
     530A      8.376894   531A      8.473685   532A      8.601403  
     533A      8.647880   534A      8.919011   535A      9.074809  
     536A     10.040556   537A     10.135212   538A     10.380792  
     539A     10.417018   540A     10.464679   541A     10.801521  
     542A     11.089667   543A     12.083854   544A     12.436291  
     545A     13.308770   546A     14.159913   547A     16.403409  
     548A     18.152934   549A     18.563834   550A     53.395313  
     551A     54.419749   552A     66.945836  

    Final Occupation by Irrep:
              A 
    DOCC [    13 ]
    NA   [    13 ]
    NB   [    13 ]

  @DF-RHF Final Energy:  -154.14559849329729

   => Energetics <=

    Nuclear Repulsion Energy =             82.2233928130092409
    One-Electron Energy =                -372.4229850830835176
    Two-Electron Energy =                 136.0539937767769914
    Total Energy =                       -154.1455984932972854

Computation Completed


Properties will be evaluated at   0.000000,   0.000000,   0.000000 [a0]

Properties computed using the SCF density matrix


 Multipole Moments:

 ------------------------------------------------------------------------------------
     Multipole            Electronic (a.u.)      Nuclear  (a.u.)        Total (a.u.)
 ------------------------------------------------------------------------------------

 L = 1.  Multiply by 2.5417464519 to convert [e a0] to [Debye]
 Dipole X            :         85.7378475          -85.5951883            0.1426592
 Dipole Y            :         -8.8402772            8.8450634            0.0047862
 Dipole Z            :          0.2310001           -0.8758956           -0.6448955
 Magnitude           :                                                    0.6605034

 ------------------------------------------------------------------------------------

*** tstop() called on moses-razer at Sun Mar  2 03:13:11 2025
Module time:
	user time   =     109.24 seconds =       1.82 minutes
	system time =       2.23 seconds =       0.04 minutes
	total time  =        112 seconds =       1.87 minutes
Total time:
	user time   =     257.53 seconds =       4.29 minutes
	system time =       6.48 seconds =       0.11 minutes
	total time  =        264 seconds =       4.40 minutes

  //>>>>>>>>>>>>>>>>>>>>>>>>>>>>>>>>>>>//
  //            Monomer B HF           //
  //<<<<<<<<<<<<<<<<<<<<<<<<<<<<<<<<<<<//

   => Libint2 <=

    Primary   basis highest AM E, G, H:  5, 4, 3
    Auxiliary basis highest AM E, G, H:  6, 5, 4
    Onebody   basis highest AM E, G, H:  6, 5, 4
    Solid Harmonics ordering:            gaussian

*** tstart() called on moses-razer
*** at Sun Mar  2 03:13:11 2025

   => Loading Basis Set <=

    Name: AUG-CC-PVTZ
    Role: ORBITAL
    Keyword: BASIS
    atoms 1-2, 10-11 entry C          line   239 file /home/kchung25/anaconda3/envs/p415env/share/psi4/basis/aug-cc-pvtz.gbs 
    atoms 3, 12      entry O          line   331 file /home/kchung25/anaconda3/envs/p415env/share/psi4/basis/aug-cc-pvtz.gbs 
    atoms 4-9, 13-18 entry H          line    40 file /home/kchung25/anaconda3/envs/p415env/share/psi4/basis/aug-cc-pvtz.gbs 


         ---------------------------------------------------------
                                   SCF
               by Justin Turney, Rob Parrish, Andy Simmonett
                          and Daniel G. A. Smith
                              RHF Reference
                        1 Threads,   9536 MiB Core
         ---------------------------------------------------------

  ==> Geometry <==

    Molecular point group: c1
    Full point group: C1

    Geometry (in Angstrom), charge = 0, multiplicity = 1:

       Center              X                  Y                   Z               Mass       
    ------------   -----------------  -----------------  -----------------  -----------------
      Gh(C)          -2.155164000000    -0.955565000000     0.208662000000    12.000000000000
      Gh(C)          -1.631256000000     0.226947000000    -0.556077000000    12.000000000000
      Gh(O)          -1.450840000000     1.288410000000     0.360837000000    15.994914619570
      Gh(H)          -1.083716000000     2.042894000000    -0.104265000000     1.007825032230
      Gh(H)          -2.299215000000    -1.811793000000    -0.452297000000     1.007825032230
      Gh(H)          -3.109149000000    -0.718332000000     0.683083000000     1.007825032230
      Gh(H)          -1.453477000000    -1.239614000000     0.996988000000     1.007825032230
      Gh(H)          -2.341754000000     0.510467000000    -1.345522000000     1.007825032230
      Gh(H)          -0.682472000000    -0.038588000000    -1.043697000000     1.007825032230
         C            2.155265000000     0.955548000000    -0.208559000000    12.000000000000
         C            1.631287000000    -0.226997000000     0.556078000000    12.000000000000
         O            1.450717000000    -1.288342000000    -0.360942000000    15.994914619570
         H            1.083422000000    -2.042797000000     0.104070000000     1.007825032230
         H            2.299530000000     1.811659000000     0.452504000000     1.007825032230
         H            1.453509000000     1.239816000000    -0.996743000000     1.007825032230
         H            3.109152000000     0.718241000000    -0.683140000000     1.007825032230
         H            0.682556000000     0.038576000000     1.043780000000     1.007825032230
         H            2.341799000000    -0.510676000000     1.345454000000     1.007825032230

  Running in c1 symmetry.

  Rotational constants: A =      0.14371  B =      0.05375  C =      0.04350 [cm^-1]
  Rotational constants: A =   4308.38109  B =   1611.53395  C =   1303.98286 [MHz]
  Nuclear repulsion =   82.223431511222387

  Charge       = 0
  Multiplicity = 1
  Electrons    = 26
  Nalpha       = 13
  Nbeta        = 13

  ==> Algorithm <==

  SCF Algorithm Type is DF.
  DIIS enabled.
  MOM disabled.
  Fractional occupation disabled.
  Guess Type is SAD.
  Energy threshold   = 1.00e-08
  Density threshold  = 1.00e-08
  Integral threshold = 1.00e-12

  ==> Primary Basis <==

  Basis Set: AUG-CC-PVTZ
    Blend: AUG-CC-PVTZ
    Number of shells: 192
    Number of basis functions: 552
    Number of Cartesian functions: 630
    Spherical Harmonics?: true
    Max angular momentum: 3

   => Loading Basis Set <=

    Name: (AUG-CC-PVTZ AUX)
    Role: JKFIT
    Keyword: DF_BASIS_SCF
    atoms 1-2, 10-11 entry C          line   162 file /home/kchung25/anaconda3/envs/p415env/share/psi4/basis/aug-cc-pvtz-jkfit.gbs 
    atoms 3, 12      entry O          line   286 file /home/kchung25/anaconda3/envs/p415env/share/psi4/basis/aug-cc-pvtz-jkfit.gbs 
    atoms 4-9, 13-18 entry H          line    70 file /home/kchung25/anaconda3/envs/p415env/share/psi4/basis/aug-cc-pvtz-jkfit.gbs 

  ==> Integral Setup <==

  ==> DiskDFJK: Density-Fitted J/K Matrices <==

    J tasked:                  Yes
    K tasked:                  Yes
    wK tasked:                  No
    OpenMP threads:              1
    Integrals threads:           1
    Memory [MiB]:             7152
    Algorithm:                Core
    Integral Cache:           LOAD
    Schwarz Cutoff:          1E-12
    Fitting Condition:       1E-10

   => Auxiliary Basis Set <=

  Basis Set: (AUG-CC-PVTZ AUX)
    Blend: AUG-CC-PVTZ-JKFIT
    Number of shells: 348
    Number of basis functions: 1176
    Number of Cartesian functions: 1446
    Spherical Harmonics?: true
    Max angular momentum: 4

  Minimum eigenvalue in the overlap matrix is 6.4603741513E-06.
  Reciprocal condition number of the overlap matrix is 3.3427384097E-07.
    Using symmetric orthogonalization.

  ==> Pre-Iterations <==

  SCF Guess: Superposition of Atomic Densities via on-the-fly atomic UHF (no occupation information).

   -------------------------
    Irrep   Nso     Nmo    
   -------------------------
     A        552     552 
   -------------------------
    Total     552     552
   -------------------------

  ==> Iterations <==

                           Total Energy        Delta E     RMS |[F,P]|

   @DF-RHF iter SAD:  -153.44553955432715   -1.53446e+02   0.00000e+00 
   @DF-RHF iter   1:  -153.99876109886603   -5.53222e-01   9.60458e-04 DIIS/ADIIS
   @DF-RHF iter   2:  -154.11081948714542   -1.12058e-01   5.34872e-04 DIIS/ADIIS
   @DF-RHF iter   3:  -154.14380740190612   -3.29879e-02   8.45167e-05 DIIS
   @DF-RHF iter   4:  -154.14540345078413   -1.59605e-03   3.24415e-05 DIIS
   @DF-RHF iter   5:  -154.14558835694373   -1.84906e-04   5.76133e-06 DIIS
   @DF-RHF iter   6:  -154.14559795276330   -9.59582e-06   1.27326e-06 DIIS
   @DF-RHF iter   7:  -154.14559850696568   -5.54202e-07   3.90363e-07 DIIS
   @DF-RHF iter   8:  -154.14559855044595   -4.34803e-08   1.05104e-07 DIIS
   @DF-RHF iter   9:  -154.14559855462016   -4.17421e-09   2.53342e-08 DIIS
   @DF-RHF iter  10:  -154.14559855488341   -2.63242e-10   4.82264e-09 DIIS
  Energy and wave function converged.


  ==> Post-Iterations <==

    Orbital Energies [Eh]
    ---------------------

    Doubly Occupied:                                                      

       1A    -20.555824     2A    -11.273921     3A    -11.210779  
       4A     -1.360917     5A     -1.014141     6A     -0.832962  
       7A     -0.702570     8A     -0.645809     9A     -0.573659  
      10A     -0.533351    11A     -0.523493    12A     -0.489174  
      13A     -0.440899  

    Virtual:                                                              

      14A      0.021373    15A      0.032211    16A      0.035830  
      17A      0.038676    18A      0.050772    19A      0.052209  
      20A      0.055250    21A      0.063947    22A      0.068573  
      23A      0.072978    24A      0.078045    25A      0.085055  
      26A      0.095229    27A      0.106229    28A      0.116541  
      29A      0.118511    30A      0.122765    31A      0.127123  
      32A      0.131638    33A      0.140237    34A      0.141870  
      35A      0.146650    36A      0.148755    37A      0.160837  
      38A      0.161790    39A      0.171714    40A      0.178518  
      41A      0.186507    42A      0.196248    43A      0.199727  
      44A      0.208696    45A      0.215354    46A      0.232812  
      47A      0.237548    48A      0.250108    49A      0.252190  
      50A      0.258620    51A      0.273975    52A      0.276200  
      53A      0.279869    54A      0.285766    55A      0.299531  
      56A      0.302117    57A      0.304805    58A      0.315790  
      59A      0.321908    60A      0.324854    61A      0.329787  
      62A      0.332580    63A      0.336314    64A      0.339485  
      65A      0.342368    66A      0.352718    67A      0.354973  
      68A      0.360467    69A      0.372641    70A      0.377383  
      71A      0.380198    72A      0.390621    73A      0.399793  
      74A      0.406540    75A      0.410856    76A      0.415454  
      77A      0.420871    78A      0.425937    79A      0.430419  
      80A      0.433734    81A      0.441142    82A      0.449627  
      83A      0.454877    84A      0.462692    85A      0.463331  
      86A      0.467392    87A      0.473274    88A      0.480544  
      89A      0.490879    90A      0.493246    91A      0.495138  
      92A      0.499909    93A      0.506819    94A      0.517543  
      95A      0.518497    96A      0.522974    97A      0.532728  
      98A      0.536722    99A      0.539353   100A      0.549024  
     101A      0.562207   102A      0.567263   103A      0.571416  
     104A      0.581855   105A      0.587043   106A      0.593281  
     107A      0.605599   108A      0.610495   109A      0.619505  
     110A      0.622106   111A      0.625072   112A      0.632713  
     113A      0.641771   114A      0.647615   115A      0.653709  
     116A      0.664208   117A      0.668629   118A      0.678329  
     119A      0.685032   120A      0.695129   121A      0.704141  
     122A      0.716026   123A      0.724872   124A      0.742155  
     125A      0.756140   126A      0.758426   127A      0.769292  
     128A      0.792072   129A      0.800996   130A      0.815167  
     131A      0.817867   132A      0.829116   133A      0.837583  
     134A      0.843173   135A      0.867333   136A      0.873076  
     137A      0.880734   138A      0.887007   139A      0.893709  
     140A      0.900183   141A      0.908864   142A      0.914524  
     143A      0.917682   144A      0.932462   145A      0.941943  
     146A      0.960463   147A      0.965108   148A      0.976273  
     149A      0.978861   150A      0.986894   151A      0.994633  
     152A      1.000099   153A      1.015757   154A      1.017549  
     155A      1.021808   156A      1.025462   157A      1.042138  
     158A      1.048243   159A      1.052987   160A      1.056145  
     161A      1.064688   162A      1.074477   163A      1.081118  
     164A      1.087825   165A      1.094455   166A      1.101893  
     167A      1.105444   168A      1.110351   169A      1.117547  
     170A      1.121450   171A      1.132818   172A      1.141784  
     173A      1.144399   174A      1.151349   175A      1.158340  
     176A      1.168352   177A      1.173825   178A      1.183966  
     179A      1.193673   180A      1.197515   181A      1.200057  
     182A      1.213231   183A      1.216939   184A      1.222985  
     185A      1.226946   186A      1.237767   187A      1.246378  
     188A      1.247427   189A      1.250857   190A      1.261826  
     191A      1.276801   192A      1.284094   193A      1.288474  
     194A      1.298868   195A      1.311162   196A      1.316922  
     197A      1.322195   198A      1.322475   199A      1.332113  
     200A      1.348815   201A      1.356117   202A      1.365116  
     203A      1.375554   204A      1.385554   205A      1.394259  
     206A      1.405239   207A      1.406871   208A      1.415567  
     209A      1.422355   210A      1.443908   211A      1.451017  
     212A      1.453151   213A      1.474238   214A      1.488973  
     215A      1.499124   216A      1.508824   217A      1.516516  
     218A      1.520854   219A      1.535817   220A      1.546274  
     221A      1.562312   222A      1.566053   223A      1.576242  
     224A      1.579456   225A      1.593463   226A      1.595156  
     227A      1.604167   228A      1.615430   229A      1.630939  
     230A      1.640639   231A      1.643785   232A      1.654386  
     233A      1.665630   234A      1.676855   235A      1.677447  
     236A      1.691159   237A      1.706465   238A      1.721416  
     239A      1.731519   240A      1.738058   241A      1.745322  
     242A      1.761167   243A      1.775041   244A      1.786619  
     245A      1.802053   246A      1.807942   247A      1.810657  
     248A      1.816553   249A      1.835059   250A      1.845520  
     251A      1.861355   252A      1.876273   253A      1.881259  
     254A      1.897721   255A      1.905745   256A      1.915090  
     257A      1.925714   258A      1.934772   259A      1.954508  
     260A      1.967424   261A      1.976520   262A      1.985168  
     263A      2.003926   264A      2.015476   265A      2.036668  
     266A      2.041462   267A      2.053126   268A      2.061377  
     269A      2.066190   270A      2.079822   271A      2.088898  
     272A      2.107284   273A      2.121131   274A      2.125777  
     275A      2.134026   276A      2.154678   277A      2.166494  
     278A      2.168802   279A      2.175712   280A      2.189058  
     281A      2.212373   282A      2.224337   283A      2.239484  
     284A      2.246467   285A      2.255355   286A      2.267060  
     287A      2.288849   288A      2.293193   289A      2.299145  
     290A      2.314940   291A      2.331154   292A      2.345755  
     293A      2.389705   294A      2.396796   295A      2.405923  
     296A      2.428545   297A      2.444016   298A      2.453387  
     299A      2.476402   300A      2.481909   301A      2.489694  
     302A      2.526305   303A      2.554790   304A      2.596475  
     305A      2.603994   306A      2.634392   307A      2.654802  
     308A      2.667147   309A      2.704927   310A      2.722562  
     311A      2.737262   312A      2.749367   313A      2.761795  
     314A      2.767498   315A      2.804311   316A      2.819079  
     317A      2.838913   318A      2.850635   319A      2.870572  
     320A      2.889534   321A      2.897978   322A      2.935016  
     323A      2.946989   324A      2.969206   325A      2.994607  
     326A      3.000715   327A      3.027223   328A      3.062438  
     329A      3.093818   330A      3.123970   331A      3.132848  
     332A      3.147613   333A      3.175304   334A      3.217186  
     335A      3.227481   336A      3.274041   337A      3.297926  
     338A      3.329447   339A      3.352099   340A      3.414977  
     341A      3.436521   342A      3.491858   343A      3.501919  
     344A      3.531688   345A      3.546699   346A      3.575328  
     347A      3.589858   348A      3.616049   349A      3.638905  
     350A      3.654694   351A      3.681692   352A      3.701295  
     353A      3.721851   354A      3.727782   355A      3.756812  
     356A      3.789801   357A      3.796857   358A      3.837136  
     359A      3.849087   360A      3.869526   361A      3.889656  
     362A      3.916592   363A      3.946089   364A      3.977160  
     365A      3.993817   366A      4.002532   367A      4.010045  
     368A      4.027183   369A      4.047586   370A      4.079596  
     371A      4.108640   372A      4.120236   373A      4.133487  
     374A      4.157659   375A      4.163861   376A      4.181547  
     377A      4.203528   378A      4.211598   379A      4.220667  
     380A      4.238853   381A      4.242387   382A      4.259945  
     383A      4.270777   384A      4.296846   385A      4.320874  
     386A      4.328040   387A      4.350129   388A      4.357334  
     389A      4.381839   390A      4.401272   391A      4.421930  
     392A      4.440460   393A      4.453459   394A      4.471294  
     395A      4.483643   396A      4.498929   397A      4.528806  
     398A      4.547671   399A      4.560547   400A      4.565280  
     401A      4.583232   402A      4.609019   403A      4.627074  
     404A      4.638079   405A      4.666247   406A      4.679305  
     407A      4.682440   408A      4.691550   409A      4.712613  
     410A      4.716781   411A      4.745281   412A      4.752271  
     413A      4.773506   414A      4.800386   415A      4.814255  
     416A      4.825856   417A      4.839689   418A      4.861996  
     419A      4.869611   420A      4.879200   421A      4.901823  
     422A      4.913436   423A      4.930776   424A      4.952595  
     425A      4.967224   426A      4.986480   427A      4.991318  
     428A      5.000381   429A      5.025886   430A      5.057034  
     431A      5.068776   432A      5.083345   433A      5.103331  
     434A      5.119981   435A      5.126144   436A      5.144723  
     437A      5.163618   438A      5.174423   439A      5.192727  
     440A      5.203798   441A      5.217915   442A      5.242858  
     443A      5.258979   444A      5.280867   445A      5.293597  
     446A      5.341116   447A      5.353867   448A      5.367299  
     449A      5.396948   450A      5.407528   451A      5.420135  
     452A      5.431741   453A      5.438163   454A      5.450839  
     455A      5.487792   456A      5.510097   457A      5.512731  
     458A      5.539231   459A      5.548472   460A      5.567007  
     461A      5.592418   462A      5.595688   463A      5.615654  
     464A      5.628712   465A      5.646876   466A      5.681069  
     467A      5.721387   468A      5.741755   469A      5.742095  
     470A      5.767696   471A      5.788433   472A      5.817791  
     473A      5.826842   474A      5.839210   475A      5.858232  
     476A      5.917597   477A      5.976424   478A      6.017872  
     479A      6.020559   480A      6.045933   481A      6.072400  
     482A      6.095392   483A      6.114999   484A      6.143525  
     485A      6.172564   486A      6.202493   487A      6.225558  
     488A      6.248700   489A      6.275601   490A      6.293970  
     491A      6.307500   492A      6.341564   493A      6.456871  
     494A      6.470771   495A      6.560573   496A      6.738782  
     497A      6.812619   498A      6.818979   499A      6.841406  
     500A      6.886026   501A      6.909451   502A      6.942218  
     503A      7.002828   504A      7.025217   505A      7.054431  
     506A      7.107581   507A      7.164387   508A      7.208232  
     509A      7.227208   510A      7.325583   511A      7.379436  
     512A      7.425849   513A      7.550103   514A      7.568134  
     515A      7.642782   516A      7.821185   517A      7.840546  
     518A      7.855938   519A      7.863865   520A      7.894256  
     521A      7.916295   522A      7.925567   523A      7.986136  
     524A      8.019856   525A      8.184221   526A      8.220885  
     527A      8.241086   528A      8.297698   529A      8.322192  
     530A      8.376918   531A      8.473666   532A      8.601398  
     533A      8.647869   534A      8.919019   535A      9.074821  
     536A     10.040564   537A     10.135210   538A     10.380787  
     539A     10.417022   540A     10.464664   541A     10.801525  
     542A     11.089668   543A     12.083757   544A     12.436297  
     545A     13.308757   546A     14.159882   547A     16.403420  
     548A     18.152906   549A     18.563731   550A     53.395363  
     551A     54.419974   552A     66.945872  

    Final Occupation by Irrep:
              A 
    DOCC [    13 ]
    NA   [    13 ]
    NB   [    13 ]

  @DF-RHF Final Energy:  -154.14559855488341

   => Energetics <=

    Nuclear Repulsion Energy =             82.2234315112223868
    One-Electron Energy =                -372.4230604734509029
    Two-Electron Energy =                 136.0540304073451239
    Total Energy =                       -154.1455985548834065

Computation Completed


Properties will be evaluated at   0.000000,   0.000000,   0.000000 [a0]

Properties computed using the SCF density matrix


 Multipole Moments:

 ------------------------------------------------------------------------------------
     Multipole            Electronic (a.u.)      Nuclear  (a.u.)        Total (a.u.)
 ------------------------------------------------------------------------------------

 L = 1.  Multiply by 2.5417464519 to convert [e a0] to [Debye]
 Dipole X            :        -85.7378797           85.5951751           -0.1427047
 Dipole Y            :          8.8402594           -8.8450729           -0.0048135
 Dipole Z            :         -0.2310075            0.8758937            0.6448862
 Magnitude           :                                                    0.6605043

 ------------------------------------------------------------------------------------

*** tstop() called on moses-razer at Sun Mar  2 03:14:50 2025
Module time:
	user time   =      97.60 seconds =       1.63 minutes
	system time =       1.46 seconds =       0.02 minutes
	total time  =         99 seconds =       1.65 minutes
Total time:
	user time   =     355.13 seconds =       5.92 minutes
	system time =       7.94 seconds =       0.13 minutes
	total time  =        363 seconds =       6.05 minutes
  Constructing Basis Sets for SAPT...

   => Loading Basis Set <=

    Name: (AUG-CC-PVTZ AUX)
    Role: RIFIT
    Keyword: DF_BASIS_SAPT
    atoms 1-2, 10-11 entry C          line   148 file /home/kchung25/anaconda3/envs/p415env/share/psi4/basis/aug-cc-pvtz-ri.gbs 
    atoms 3, 12      entry O          line   264 file /home/kchung25/anaconda3/envs/p415env/share/psi4/basis/aug-cc-pvtz-ri.gbs 
    atoms 4-9, 13-18 entry H          line    30 file /home/kchung25/anaconda3/envs/p415env/share/psi4/basis/aug-cc-pvtz-ri.gbs 

   => Loading Basis Set <=

    Name: (AUG-CC-PVTZ AUX)
    Role: JKFIT
    Keyword: DF_BASIS_ELST
    atoms 1-2, 10-11 entry C          line   162 file /home/kchung25/anaconda3/envs/p415env/share/psi4/basis/aug-cc-pvtz-jkfit.gbs 
    atoms 3, 12      entry O          line   286 file /home/kchung25/anaconda3/envs/p415env/share/psi4/basis/aug-cc-pvtz-jkfit.gbs 
    atoms 4-9, 13-18 entry H          line    70 file /home/kchung25/anaconda3/envs/p415env/share/psi4/basis/aug-cc-pvtz-jkfit.gbs 


  //>>>>>>>>>>>>>>>>>>>>>>>>>>>>>>>>>>>//
  //               SAPT2+              //
  //<<<<<<<<<<<<<<<<<<<<<<<<<<<<<<<<<<<//


*** tstart() called on moses-razer
*** at Sun Mar  2 03:14:50 2025

        SAPT2+  
    Ed Hohenstein
     6 June 2009

      Orbital Information
  --------------------------
    NSO        =       552
    NMO        =       552
    NRI        =      1188
    NOCC A     =        13
    NOCC B     =        13
    FOCC A     =         0
    FOCC B     =         0
    NVIR A     =       539
    NVIR B     =       539

    Estimated memory usage: 3939.5 MB

    Natural Orbital Cutoff:   1.000E-06
    Disp(T3) Truncation:            Yes
    CCD (vv|vv) Truncation:         Yes
    MBPT T2 Truncation:             Yes

    Monomer A: 306 virtual orbitals dropped
    Monomer B: 306 virtual orbitals dropped

    Elst10,r            =    -0.004163606542 [Eh]
    Exch10 (S^2)        =     0.007674081329 [Eh]
    Exch10              =     0.007691792533 [Eh]
    Ind20,r (A<-B)      =    -0.001048208452 [Eh]
    Ind20,r (B<-A)      =    -0.001047816551 [Eh]
    Ind20,r             =    -0.002096025003 [Eh]
    Exch-Ind20,r (A<-B) =     0.000743153791 [Eh]
    Exch-Ind20,r (B<-A) =     0.000742814313 [Eh]
    Exch-Ind20,r        =     0.001485968104 [Eh]
    Disp20              =    -0.008019249618 [Eh]
    Disp20 (NO)         =    -0.007191166948 [Eh]
    Exch-Disp20         =     0.000865116306 [Eh]
    Elst12,r            =    -0.000492826807 [Eh]
    Exch11              =     0.000085600854 [Eh]
    Exch12              =     0.001150786506 [Eh]
    Ind22               =    -0.000290489839 [Eh]
    Disp21              =     0.000452067677 [Eh]
    Disp22 (SDQ)        =     0.000127013397 [Eh]

    (i =   1 of  13)        240 seconds
    (i =   2 of  13)        481 seconds
    (i =   3 of  13)        723 seconds
    (i =   4 of  13)        965 seconds
    (i =   5 of  13)       1206 seconds
    (i =   6 of  13)       1447 seconds
    (i =   7 of  13)       1689 seconds
    (i =   8 of  13)       1917 seconds
    (i =   9 of  13)       2161 seconds
    (i =  10 of  13)       2406 seconds
    (i =  11 of  13)       2650 seconds
    (i =  12 of  13)       2894 seconds
    (i =  13 of  13)       3186 seconds

    Disp220 (T)         =    -0.000579230939 [Eh]

    (i =   1 of  13)        237 seconds
    (i =   2 of  13)        499 seconds
    (i =   3 of  13)        757 seconds
    (i =   4 of  13)        996 seconds
    (i =   5 of  13)       1245 seconds
    (i =   6 of  13)       1488 seconds
    (i =   7 of  13)       1730 seconds
    (i =   8 of  13)       1973 seconds
    (i =   9 of  13)       2215 seconds
    (i =  10 of  13)       2457 seconds
    (i =  11 of  13)       2698 seconds
    (i =  12 of  13)       2939 seconds
    (i =  13 of  13)       3181 seconds

    Disp202 (T)         =    -0.000579266346 [Eh]

    Disp22 (T)          =    -0.001158497285 [Eh]

    Est. Disp220 (T)    =    -0.000645930976 [Eh]
    Est. Disp202 (T)    =    -0.000645970461 [Eh]

    Est. Disp22 (T)     =    -0.001291901436 [Eh]

    SAPT Results 
  --------------------------------------------------------------------------------------------------------
    Electrostatics                 -4.65643335 [mEh]      -2.92195604 [kcal/mol]     -12.22546407 [kJ/mol]
      Elst10,r                     -4.16360654 [mEh]      -2.61270255 [kcal/mol]     -10.93154747 [kJ/mol]
      Elst12,r                     -0.49282681 [mEh]      -0.30925349 [kcal/mol]      -1.29391660 [kJ/mol]

    Exchange                        8.92817989 [mEh]       5.60251747 [kcal/mol]      23.44093308 [kJ/mol]
      Exch10                        7.69179253 [mEh]       4.82667268 [kcal/mol]      20.19479851 [kJ/mol]
      Exch10(S^2)                   7.67408133 [mEh]       4.81555874 [kcal/mol]      20.14829775 [kJ/mol]
      Exch11(S^2)                   0.08560085 [mEh]       0.05371535 [kcal/mol]       0.22474501 [kJ/mol]
      Exch12(S^2)                   1.15078651 [mEh]       0.72212943 [kcal/mol]       3.02138955 [kJ/mol]

    Induction                      -1.27703917 [mEh]      -0.80135418 [kcal/mol]      -3.35286588 [kJ/mol]
      Ind20,r                      -2.09602500 [mEh]      -1.31527555 [kcal/mol]      -5.50311289 [kJ/mol]
      Ind22                        -0.29048984 [mEh]      -0.18228513 [kcal/mol]      -0.76268097 [kJ/mol]
      Exch-Ind20,r                  1.48596810 [mEh]       0.93245906 [kcal/mol]       3.90140872 [kJ/mol]
      Exch-Ind22                    0.20594155 [mEh]       0.12923027 [kcal/mol]       0.54069946 [kJ/mol]
      delta HF,r (2)               -0.58243398 [mEh]      -0.36548284 [kcal/mol]      -1.52918020 [kJ/mol]

    Dispersion                     -7.86695367 [mEh]      -4.93658796 [kcal/mol]     -20.65468403 [kJ/mol]
      Disp20                       -8.01924962 [mEh]      -5.03215511 [kcal/mol]     -21.05453697 [kJ/mol]
      Disp21                        0.45206768 [mEh]       0.28367675 [kcal/mol]       1.18690352 [kJ/mol]
      Disp22 (SDQ)                  0.12701340 [mEh]       0.07970211 [kcal/mol]       0.33347363 [kJ/mol]
      Disp22 (T)                   -1.15849728 [mEh]      -0.72696802 [kcal/mol]      -3.04163420 [kJ/mol]
      Est. Disp22 (T)              -1.29190144 [mEh]      -0.81068039 [kcal/mol]      -3.39188675 [kJ/mol]
      Exch-Disp20                   0.86511631 [mEh]       0.54286868 [kcal/mol]       2.27136255 [kJ/mol]

  Total HF                          2.33569511 [mEh]       1.46567081 [kcal/mol]       6.13236667 [kJ/mol]
  Total SAPT0                      -4.81843820 [mEh]      -3.02361562 [kcal/mol]     -12.65080775 [kJ/mol]
  Total SAPT2                      -4.15942594 [mEh]      -2.61007918 [kcal/mol]     -10.92057129 [kJ/mol]
  Total SAPT2+                     -4.87224630 [mEh]      -3.05738071 [kcal/mol]     -12.79208090 [kJ/mol]

  Special recipe for scaled SAPT0 (see Manual):
    Electrostatics sSAPT0          -4.16360654 [mEh]      -2.61270255 [kcal/mol]     -10.93154747 [kJ/mol]
    Exchange sSAPT0                 7.69179253 [mEh]       4.82667268 [kcal/mol]      20.19479851 [kJ/mol]
    Induction sSAPT0               -1.18217861 [mEh]      -0.74182828 [kcal/mol]      -3.10380950 [kJ/mol]
    Dispersion sSAPT0              -7.14812961 [mEh]      -4.48551905 [kcal/mol]     -18.76741170 [kJ/mol]
  Total sSAPT0                     -4.80212222 [mEh]      -3.01337719 [kcal/mol]     -12.60797016 [kJ/mol]
  --------------------------------------------------------------------------------------------------------

*** tstop() called on moses-razer at Sun Mar  2 05:33:15 2025
Module time:
	user time   =    8140.32 seconds =     135.67 minutes
	system time =     128.55 seconds =       2.14 minutes
	total time  =       8305 seconds =     138.42 minutes
Total time:
	user time   =    8495.64 seconds =     141.59 minutes
	system time =     136.50 seconds =       2.27 minutes
	total time  =       8668 seconds =     144.47 minutes

    Psi4 stopped on: Sunday, 02 March 2025 05:33AM
    Psi4 wall time for execution: 2:24:29.04

*** Psi4 exiting successfully. Buy a developer a beer!
