
    -----------------------------------------------------------------------
          Psi4: An Open-Source Ab Initio Electronic Structure Package
                               Psi4 1.9 release

                         Git: Rev {} zzzzzzz 


    D. G. A. Smith, L. A. Burns, A. C. Simmonett, R. M. Parrish,
    M. C. Schieber, R. Galvelis, P. Kraus, H. Kruse, R. Di Remigio,
    A. Alenaizan, A. M. James, S. Lehtola, J. P. Misiewicz, M. Scheurer,
    R. A. Shaw, J. B. Schriber, Y. Xie, Z. L. Glick, D. A. Sirianni,
    J. S. O'Brien, J. M. Waldrop, A. Kumar, E. G. Hohenstein,
    B. P. Pritchard, B. R. Brooks, H. F. Schaefer III, A. Yu. Sokolov,
    K. Patkowski, A. E. DePrince III, U. Bozkaya, R. A. King,
    F. A. Evangelista, J. M. Turney, T. D. Crawford, C. D. Sherrill,
    J. Chem. Phys. 152(18) 184108 (2020). https://doi.org/10.1063/5.0006002

                            Additional Code Authors
    E. T. Seidl, C. L. Janssen, E. F. Valeev, M. L. Leininger,
    J. F. Gonthier, R. M. Richard, H. R. McAlexander, M. Saitow, X. Wang,
    P. Verma, M. H. Lechner, A. Jiang, S. Behnle, A. G. Heide,
    M. F. Herbst, and D. L. Poole

             Previous Authors, Complete List of Code Contributors,
                       and Citations for Specific Modules
    https://github.com/psi4/psi4/blob/master/codemeta.json
    https://github.com/psi4/psi4/graphs/contributors
    http://psicode.org/psi4manual/master/introduction.html#citing-psifour

    -----------------------------------------------------------------------


    Psi4 started on: Saturday, 01 March 2025 10:58PM

    Process ID: 200657
    Host:       moses-razer
    PSIDATADIR: /home/kchung25/anaconda3/envs/psi4_19/share/psi4
    Memory:     500.0 MiB
    Threads:    1
    
  ==> Input File <==

--------------------------------------------------------------------------
MEMORY 10 GB

molecule dimer {
0 1
C    2.584823   0.580861  -0.414759
C    1.760466  -0.661007  -0.173359
O    0.998046  -0.577244   1.001583
H    0.375593   0.156131   0.879066
H    3.189531   0.489143  -1.319989
H    3.250277   0.766859   0.430319
H    1.937739   1.455965  -0.526514
H    2.409824  -1.534677  -0.065270
H    1.117876  -0.858158  -1.048615
--
0 1
C   -2.057266  -0.936950  -0.531782
C   -2.184932   0.344508   0.249614
O   -1.064190   1.198352   0.077039
H   -0.954906   1.372540  -0.862252
H   -2.929025  -1.575620  -0.377756
H   -1.165835  -1.484887  -0.218990
H   -1.982100  -0.734326  -1.604803
H   -2.230479   0.136995   1.321525
H   -3.107893   0.876704  -0.013975

units ang
no_reorient
no_com
symmetry c1
}

set {
basis        aug-cc-pVTZ
scf_type     df
}

energy("sapt2+")
--------------------------------------------------------------------------

  Memory set to   9.313 GiB by Python driver.

Scratch directory: /scratch/
   => Loading Basis Set <=

    Name: AUG-CC-PVTZ
    Role: ORBITAL
    Keyword: BASIS
    atoms 1-2, 10-11 entry C          line   239 file /home/kchung25/anaconda3/envs/p415env/share/psi4/basis/aug-cc-pvtz.gbs 
    atoms 3, 12      entry O          line   331 file /home/kchung25/anaconda3/envs/p415env/share/psi4/basis/aug-cc-pvtz.gbs 
    atoms 4-9, 13-18 entry H          line    40 file /home/kchung25/anaconda3/envs/p415env/share/psi4/basis/aug-cc-pvtz.gbs 

   => Loading Basis Set <=

    Name: AUG-CC-PVTZ
    Role: ORBITAL
    Keyword: BASIS
    atoms 1-2, 10-11 entry C          line   239 file /home/kchung25/anaconda3/envs/p415env/share/psi4/basis/aug-cc-pvtz.gbs 
    atoms 3, 12      entry O          line   331 file /home/kchung25/anaconda3/envs/p415env/share/psi4/basis/aug-cc-pvtz.gbs 
    atoms 4-9, 13-18 entry H          line    40 file /home/kchung25/anaconda3/envs/p415env/share/psi4/basis/aug-cc-pvtz.gbs 


  //>>>>>>>>>>>>>>>>>>>>>>>>>>>>>>>>>>>//
  //              Dimer HF             //
  //<<<<<<<<<<<<<<<<<<<<<<<<<<<<<<<<<<<//

   => Libint2 <=

    Primary   basis highest AM E, G, H:  5, 4, 3
    Auxiliary basis highest AM E, G, H:  6, 5, 4
    Onebody   basis highest AM E, G, H:  6, 5, 4
    Solid Harmonics ordering:            gaussian

*** tstart() called on moses-razer
*** at Sat Mar  1 22:58:27 2025

   => Loading Basis Set <=

    Name: AUG-CC-PVTZ
    Role: ORBITAL
    Keyword: BASIS
    atoms 1-2, 10-11 entry C          line   239 file /home/kchung25/anaconda3/envs/p415env/share/psi4/basis/aug-cc-pvtz.gbs 
    atoms 3, 12      entry O          line   331 file /home/kchung25/anaconda3/envs/p415env/share/psi4/basis/aug-cc-pvtz.gbs 
    atoms 4-9, 13-18 entry H          line    40 file /home/kchung25/anaconda3/envs/p415env/share/psi4/basis/aug-cc-pvtz.gbs 


         ---------------------------------------------------------
                                   SCF
               by Justin Turney, Rob Parrish, Andy Simmonett
                          and Daniel G. A. Smith
                              RHF Reference
                        1 Threads,   9536 MiB Core
         ---------------------------------------------------------

  ==> Geometry <==

    Molecular point group: c1
    Full point group: C1

    Geometry (in Angstrom), charge = 0, multiplicity = 1:

       Center              X                  Y                   Z               Mass       
    ------------   -----------------  -----------------  -----------------  -----------------
         C            2.584823000000     0.580861000000    -0.414759000000    12.000000000000
         C            1.760466000000    -0.661007000000    -0.173359000000    12.000000000000
         O            0.998046000000    -0.577244000000     1.001583000000    15.994914619570
         H            0.375593000000     0.156131000000     0.879066000000     1.007825032230
         H            3.189531000000     0.489143000000    -1.319989000000     1.007825032230
         H            3.250277000000     0.766859000000     0.430319000000     1.007825032230
         H            1.937739000000     1.455965000000    -0.526514000000     1.007825032230
         H            2.409824000000    -1.534677000000    -0.065270000000     1.007825032230
         H            1.117876000000    -0.858158000000    -1.048615000000     1.007825032230
         C           -2.057266000000    -0.936950000000    -0.531782000000    12.000000000000
         C           -2.184932000000     0.344508000000     0.249614000000    12.000000000000
         O           -1.064190000000     1.198352000000     0.077039000000    15.994914619570
         H           -0.954906000000     1.372540000000    -0.862252000000     1.007825032230
         H           -2.929025000000    -1.575620000000    -0.377756000000     1.007825032230
         H           -1.165835000000    -1.484887000000    -0.218990000000     1.007825032230
         H           -1.982100000000    -0.734326000000    -1.604803000000     1.007825032230
         H           -2.230479000000     0.136995000000     1.321525000000     1.007825032230
         H           -3.107893000000     0.876704000000    -0.013975000000     1.007825032230

  Running in c1 symmetry.

  Rotational constants: A =      0.17635  B =      0.04772  C =      0.04381 [cm^-1]
  Rotational constants: A =   5286.79367  B =   1430.55159  C =   1313.53813 [MHz]
  Nuclear repulsion =  259.888847752289280

  Charge       = 0
  Multiplicity = 1
  Electrons    = 52
  Nalpha       = 26
  Nbeta        = 26

  ==> Algorithm <==

  SCF Algorithm Type is DF.
  DIIS enabled.
  MOM disabled.
  Fractional occupation disabled.
  Guess Type is SAD.
  Energy threshold   = 1.00e-08
  Density threshold  = 1.00e-08
  Integral threshold = 1.00e-12

  ==> Primary Basis <==

  Basis Set: AUG-CC-PVTZ
    Blend: AUG-CC-PVTZ
    Number of shells: 192
    Number of basis functions: 552
    Number of Cartesian functions: 630
    Spherical Harmonics?: true
    Max angular momentum: 3

   => Loading Basis Set <=

    Name: (AUG-CC-PVTZ AUX)
    Role: JKFIT
    Keyword: DF_BASIS_SCF
    atoms 1-2, 10-11 entry C          line   162 file /home/kchung25/anaconda3/envs/p415env/share/psi4/basis/aug-cc-pvtz-jkfit.gbs 
    atoms 3, 12      entry O          line   286 file /home/kchung25/anaconda3/envs/p415env/share/psi4/basis/aug-cc-pvtz-jkfit.gbs 
    atoms 4-9, 13-18 entry H          line    70 file /home/kchung25/anaconda3/envs/p415env/share/psi4/basis/aug-cc-pvtz-jkfit.gbs 

  ==> Integral Setup <==

  ==> DiskDFJK: Density-Fitted J/K Matrices <==

    J tasked:                  Yes
    K tasked:                  Yes
    wK tasked:                  No
    OpenMP threads:              1
    Integrals threads:           1
    Memory [MiB]:             7152
    Algorithm:                Core
    Integral Cache:           SAVE
    Schwarz Cutoff:          1E-12
    Fitting Condition:       1E-10

   => Auxiliary Basis Set <=

  Basis Set: (AUG-CC-PVTZ AUX)
    Blend: AUG-CC-PVTZ-JKFIT
    Number of shells: 348
    Number of basis functions: 1176
    Number of Cartesian functions: 1446
    Spherical Harmonics?: true
    Max angular momentum: 4

  Minimum eigenvalue in the overlap matrix is 7.9538941254E-06.
  Reciprocal condition number of the overlap matrix is 4.1925193869E-07.
    Using symmetric orthogonalization.

  ==> Pre-Iterations <==

  SCF Guess: Superposition of Atomic Densities via on-the-fly atomic UHF (no occupation information).

   -------------------------
    Irrep   Nso     Nmo    
   -------------------------
     A        552     552 
   -------------------------
    Total     552     552
   -------------------------

  ==> Iterations <==

                           Total Energy        Delta E     RMS |[F,P]|

   @DF-RHF iter SAD:  -307.11687571308113   -3.07117e+02   0.00000e+00 
   @DF-RHF iter   1:  -308.02114816321358   -9.04272e-01   1.28819e-03 DIIS/ADIIS
   @DF-RHF iter   2:  -308.23990831079482   -2.18760e-01   6.47207e-04 DIIS/ADIIS
   @DF-RHF iter   3:  -308.28904507138407   -4.91368e-02   1.16455e-04 DIIS/ADIIS
   @DF-RHF iter   4:  -308.29214091634475   -3.09584e-03   4.22729e-05 DIIS
   @DF-RHF iter   5:  -308.29246071899615   -3.19803e-04   8.86133e-06 DIIS
   @DF-RHF iter   6:  -308.29248193073875   -2.12117e-05   2.08450e-06 DIIS
   @DF-RHF iter   7:  -308.29248345610893   -1.52537e-06   5.81407e-07 DIIS
   @DF-RHF iter   8:  -308.29248356775190   -1.11643e-07   1.78220e-07 DIIS
   @DF-RHF iter   9:  -308.29248357883415   -1.10822e-08   4.74031e-08 DIIS
   @DF-RHF iter  10:  -308.29248357962473   -7.90578e-10   1.22456e-08 DIIS
   @DF-RHF iter  11:  -308.29248357966173   -3.70051e-11   4.59823e-09 DIIS
  Energy and wave function converged.


  ==> Post-Iterations <==

    Orbital Energies [Eh]
    ---------------------

    Doubly Occupied:                                                      

       1A    -20.576125     2A    -20.532250     3A    -11.284505  
       4A    -11.262339     5A    -11.222069     6A    -11.207764  
       7A     -1.382150     8A     -1.343385     9A     -1.023711  
      10A     -1.001883    11A     -0.859428    12A     -0.834517  
      13A     -0.709281    14A     -0.673662    15A     -0.638151  
      16A     -0.623522    17A     -0.613242    18A     -0.596501  
      19A     -0.554457    20A     -0.537793    21A     -0.530175  
      22A     -0.515131    23A     -0.494021    24A     -0.468784  
      25A     -0.455632    26A     -0.425792  

    Virtual:                                                              

      27A      0.025424    28A      0.034850    29A      0.037851  
      30A      0.040964    31A      0.050963    32A      0.053975  
      33A      0.054217    34A      0.060722    35A      0.073837  
      36A      0.079286    37A      0.082706    38A      0.088360  
      39A      0.100260    40A      0.117026    41A      0.121430  
      42A      0.124150    43A      0.130176    44A      0.135077  
      45A      0.138140    46A      0.141972    47A      0.147891  
      48A      0.151979    49A      0.154985    50A      0.158573  
      51A      0.166954    52A      0.173105    53A      0.181616  
      54A      0.195112    55A      0.198288    56A      0.206856  
      57A      0.211504    58A      0.229353    59A      0.233015  
      60A      0.247883    61A      0.255982    62A      0.260990  
      63A      0.263784    64A      0.273097    65A      0.274130  
      66A      0.291915    67A      0.295644    68A      0.297851  
      69A      0.305900    70A      0.309028    71A      0.316588  
      72A      0.319075    73A      0.325847    74A      0.335032  
      75A      0.343081    76A      0.345201    77A      0.348123  
      78A      0.352156    79A      0.354776    80A      0.364595  
      81A      0.368323    82A      0.376110    83A      0.380910  
      84A      0.386447    85A      0.392237    86A      0.395629  
      87A      0.405385    88A      0.409349    89A      0.417663  
      90A      0.418952    91A      0.428190    92A      0.430499  
      93A      0.432781    94A      0.440511    95A      0.446356  
      96A      0.448248    97A      0.451358    98A      0.459813  
      99A      0.464228   100A      0.468203   101A      0.471338  
     102A      0.477148   103A      0.477719   104A      0.487926  
     105A      0.497336   106A      0.501994   107A      0.507493  
     108A      0.512851   109A      0.514633   110A      0.520747  
     111A      0.525621   112A      0.531574   113A      0.533398  
     114A      0.541603   115A      0.545147   116A      0.555791  
     117A      0.560727   118A      0.568557   119A      0.573298  
     120A      0.580742   121A      0.593369   122A      0.600485  
     123A      0.605021   124A      0.610957   125A      0.620673  
     126A      0.625659   127A      0.632827   128A      0.638303  
     129A      0.654191   130A      0.663236   131A      0.678732  
     132A      0.691598   133A      0.697888   134A      0.715613  
     135A      0.725833   136A      0.729042   137A      0.748069  
     138A      0.763096   139A      0.769983   140A      0.786424  
     141A      0.798545   142A      0.810904   143A      0.812298  
     144A      0.820624   145A      0.829700   146A      0.838945  
     147A      0.847764   148A      0.853316   149A      0.855291  
     150A      0.861268   151A      0.871847   152A      0.877755  
     153A      0.884703   154A      0.889117   155A      0.895864  
     156A      0.904954   157A      0.912575   158A      0.919723  
     159A      0.927086   160A      0.935947   161A      0.939387  
     162A      0.943393   163A      0.953498   164A      0.963342  
     165A      0.969346   166A      0.971487   167A      0.982404  
     168A      0.990059   169A      0.991524   170A      1.000344  
     171A      1.007674   172A      1.011577   173A      1.019984  
     174A      1.031059   175A      1.036540   176A      1.042363  
     177A      1.052803   178A      1.059673   179A      1.070326  
     180A      1.073376   181A      1.083296   182A      1.090550  
     183A      1.093942   184A      1.102972   185A      1.111821  
     186A      1.119567   187A      1.122914   188A      1.124298  
     189A      1.138809   190A      1.146950   191A      1.151296  
     192A      1.162212   193A      1.164035   194A      1.166097  
     195A      1.176086   196A      1.184490   197A      1.192407  
     198A      1.194296   199A      1.207128   200A      1.209534  
     201A      1.226046   202A      1.239534   203A      1.251287  
     204A      1.255245   205A      1.266612   206A      1.274283  
     207A      1.280515   208A      1.284402   209A      1.290071  
     210A      1.293287   211A      1.298254   212A      1.322489  
     213A      1.330353   214A      1.335205   215A      1.336847  
     216A      1.362343   217A      1.371142   218A      1.376000  
     219A      1.382000   220A      1.403625   221A      1.410945  
     222A      1.412857   223A      1.426018   224A      1.434301  
     225A      1.443650   226A      1.449776   227A      1.466801  
     228A      1.469594   229A      1.474363   230A      1.486422  
     231A      1.488241   232A      1.498466   233A      1.517233  
     234A      1.531040   235A      1.552620   236A      1.555514  
     237A      1.578133   238A      1.588790   239A      1.591544  
     240A      1.608295   241A      1.620857   242A      1.626794  
     243A      1.634310   244A      1.647531   245A      1.652900  
     246A      1.669538   247A      1.671380   248A      1.677717  
     249A      1.680933   250A      1.688755   251A      1.700031  
     252A      1.702690   253A      1.707670   254A      1.723795  
     255A      1.729802   256A      1.736684   257A      1.747070  
     258A      1.757254   259A      1.759743   260A      1.770391  
     261A      1.789891   262A      1.790590   263A      1.797554  
     264A      1.811413   265A      1.820860   266A      1.830868  
     267A      1.841416   268A      1.853018   269A      1.864800  
     270A      1.884992   271A      1.885827   272A      1.890343  
     273A      1.910092   274A      1.920050   275A      1.926070  
     276A      1.942168   277A      1.951728   278A      1.957202  
     279A      1.961085   280A      1.973399   281A      1.995855  
     282A      2.002421   283A      2.006960   284A      2.030912  
     285A      2.045493   286A      2.046216   287A      2.050155  
     288A      2.073680   289A      2.094822   290A      2.101296  
     291A      2.114209   292A      2.134723   293A      2.142626  
     294A      2.166558   295A      2.175127   296A      2.195925  
     297A      2.199391   298A      2.230601   299A      2.240185  
     300A      2.245224   301A      2.248927   302A      2.254780  
     303A      2.263089   304A      2.273112   305A      2.286938  
     306A      2.313161   307A      2.326645   308A      2.344673  
     309A      2.346533   310A      2.366370   311A      2.375194  
     312A      2.404574   313A      2.429692   314A      2.445695  
     315A      2.457667   316A      2.486908   317A      2.498956  
     318A      2.524630   319A      2.544332   320A      2.629288  
     321A      2.652979   322A      2.685695   323A      2.700294  
     324A      2.723935   325A      2.738142   326A      2.770532  
     327A      2.802002   328A      2.811138   329A      2.842255  
     330A      2.861351   331A      2.869582   332A      2.892772  
     333A      2.896504   334A      2.950626   335A      2.972570  
     336A      2.983637   337A      3.023981   338A      3.036537  
     339A      3.065395   340A      3.071659   341A      3.112067  
     342A      3.130345   343A      3.144948   344A      3.173802  
     345A      3.219450   346A      3.231097   347A      3.265775  
     348A      3.283916   349A      3.284705   350A      3.300965  
     351A      3.385179   352A      3.423789   353A      3.435719  
     354A      3.455747   355A      3.465650   356A      3.493453  
     357A      3.505910   358A      3.514039   359A      3.535631  
     360A      3.562873   361A      3.587416   362A      3.629429  
     363A      3.639097   364A      3.657819   365A      3.669150  
     366A      3.673988   367A      3.680618   368A      3.698763  
     369A      3.721674   370A      3.729383   371A      3.749392  
     372A      3.762920   373A      3.767782   374A      3.789464  
     375A      3.800037   376A      3.814862   377A      3.823174  
     378A      3.824952   379A      3.830234   380A      3.847158  
     381A      3.872067   382A      3.880249   383A      3.909527  
     384A      3.931218   385A      3.944534   386A      3.962078  
     387A      3.975438   388A      3.976635   389A      3.984445  
     390A      3.987855   391A      4.000006   392A      4.016244  
     393A      4.023544   394A      4.056880   395A      4.072565  
     396A      4.084275   397A      4.103265   398A      4.116032  
     399A      4.122926   400A      4.147741   401A      4.163303  
     402A      4.168344   403A      4.179107   404A      4.186365  
     405A      4.193213   406A      4.219031   407A      4.226535  
     408A      4.236569   409A      4.244413   410A      4.267481  
     411A      4.295260   412A      4.305169   413A      4.318444  
     414A      4.344016   415A      4.361310   416A      4.380540  
     417A      4.416720   418A      4.423769   419A      4.450460  
     420A      4.483282   421A      4.490789   422A      4.505163  
     423A      4.526569   424A      4.553991   425A      4.566900  
     426A      4.576165   427A      4.589253   428A      4.600109  
     429A      4.604706   430A      4.631424   431A      4.641769  
     432A      4.664269   433A      4.696208   434A      4.712777  
     435A      4.737961   436A      4.757941   437A      4.766643  
     438A      4.778338   439A      4.815915   440A      4.824009  
     441A      4.841728   442A      4.847304   443A      4.864261  
     444A      4.880188   445A      4.885391   446A      4.894942  
     447A      4.915755   448A      4.927144   449A      4.950322  
     450A      4.952434   451A      4.973570   452A      4.979813  
     453A      4.990088   454A      5.012690   455A      5.023260  
     456A      5.046267   457A      5.057822   458A      5.078828  
     459A      5.087979   460A      5.102440   461A      5.119705  
     462A      5.146838   463A      5.174445   464A      5.183339  
     465A      5.194294   466A      5.210748   467A      5.229851  
     468A      5.251612   469A      5.269701   470A      5.281253  
     471A      5.309760   472A      5.319723   473A      5.363937  
     474A      5.381712   475A      5.388018   476A      5.404650  
     477A      5.435451   478A      5.444877   479A      5.479986  
     480A      5.491704   481A      5.538439   482A      5.550323  
     483A      5.561595   484A      5.582083   485A      5.597721  
     486A      5.602405   487A      5.633101   488A      5.642123  
     489A      5.662509   490A      5.674684   491A      5.704213  
     492A      5.731240   493A      5.736333   494A      5.782824  
     495A      5.803791   496A      5.821253   497A      5.869545  
     498A      5.871163   499A      6.008755   500A      6.017368  
     501A      6.065421   502A      6.102952   503A      6.131673  
     504A      6.146545   505A      6.172451   506A      6.195222  
     507A      6.236851   508A      6.255807   509A      6.279749  
     510A      6.285864   511A      6.333366   512A      6.379316  
     513A      6.409766   514A      6.427413   515A      6.712342  
     516A      6.727596   517A      6.746801   518A      6.799785  
     519A      6.800988   520A      6.857375   521A      6.880948  
     522A      6.895958   523A      7.022725   524A      7.051084  
     525A      7.084847   526A      7.131521   527A      7.205673  
     528A      7.220428   529A      7.375397   530A      7.384965  
     531A      7.423573   532A      7.463217   533A      7.513576  
     534A      7.563558   535A      7.623003   536A      7.657401  
     537A      7.674749   538A      7.734744   539A      7.876267  
     540A      7.930051   541A      7.979489   542A      8.092213  
     543A      8.267894   544A      8.323127   545A      8.640196  
     546A      8.685111   547A     16.539554   548A     16.970565  
     549A     17.759407   550A     17.820812   551A     18.501195  
     552A     18.665758  

    Final Occupation by Irrep:
              A 
    DOCC [    26 ]
    NA   [    26 ]
    NB   [    26 ]

  @DF-RHF Final Energy:  -308.29248357966173

   => Energetics <=

    Nuclear Repulsion Energy =            259.8888477522892799
    One-Electron Energy =                -935.6301182547605322
    Two-Electron Energy =                 367.4487869228095178
    Total Energy =                       -308.2924835796617344

Computation Completed


Properties will be evaluated at   0.000000,   0.000000,   0.000000 [a0]

Properties computed using the SCF density matrix


 Multipole Moments:

 ------------------------------------------------------------------------------------
     Multipole            Electronic (a.u.)      Nuclear  (a.u.)        Total (a.u.)
 ------------------------------------------------------------------------------------

 L = 1.  Multiply by 2.5417464519 to convert [e a0] to [Debye]
 Dipole X            :         -0.6461221           -0.0000076           -0.6461296
 Dipole Y            :          0.1645046            0.0000094            0.1645140
 Dipole Z            :         -1.0216642            0.0000113           -1.0216529
 Magnitude           :                                                    1.2199684

 ------------------------------------------------------------------------------------

*** tstop() called on moses-razer at Sat Mar  1 23:01:44 2025
Module time:
	user time   =     192.32 seconds =       3.21 minutes
	system time =       3.92 seconds =       0.07 minutes
	total time  =        197 seconds =       3.28 minutes
Total time:
	user time   =     192.32 seconds =       3.21 minutes
	system time =       3.92 seconds =       0.07 minutes
	total time  =        197 seconds =       3.28 minutes

  //>>>>>>>>>>>>>>>>>>>>>>>>>>>>>>>>>>>//
  //            Monomer A HF           //
  //<<<<<<<<<<<<<<<<<<<<<<<<<<<<<<<<<<<//

   => Libint2 <=

    Primary   basis highest AM E, G, H:  5, 4, 3
    Auxiliary basis highest AM E, G, H:  6, 5, 4
    Onebody   basis highest AM E, G, H:  6, 5, 4
    Solid Harmonics ordering:            gaussian

*** tstart() called on moses-razer
*** at Sat Mar  1 23:01:44 2025

   => Loading Basis Set <=

    Name: AUG-CC-PVTZ
    Role: ORBITAL
    Keyword: BASIS
    atoms 1-2, 10-11 entry C          line   239 file /home/kchung25/anaconda3/envs/p415env/share/psi4/basis/aug-cc-pvtz.gbs 
    atoms 3, 12      entry O          line   331 file /home/kchung25/anaconda3/envs/p415env/share/psi4/basis/aug-cc-pvtz.gbs 
    atoms 4-9, 13-18 entry H          line    40 file /home/kchung25/anaconda3/envs/p415env/share/psi4/basis/aug-cc-pvtz.gbs 


         ---------------------------------------------------------
                                   SCF
               by Justin Turney, Rob Parrish, Andy Simmonett
                          and Daniel G. A. Smith
                              RHF Reference
                        1 Threads,   9536 MiB Core
         ---------------------------------------------------------

  ==> Geometry <==

    Molecular point group: c1
    Full point group: C1

    Geometry (in Angstrom), charge = 0, multiplicity = 1:

       Center              X                  Y                   Z               Mass       
    ------------   -----------------  -----------------  -----------------  -----------------
         C            2.584823000000     0.580861000000    -0.414759000000    12.000000000000
         C            1.760466000000    -0.661007000000    -0.173359000000    12.000000000000
         O            0.998046000000    -0.577244000000     1.001583000000    15.994914619570
         H            0.375593000000     0.156131000000     0.879066000000     1.007825032230
         H            3.189531000000     0.489143000000    -1.319989000000     1.007825032230
         H            3.250277000000     0.766859000000     0.430319000000     1.007825032230
         H            1.937739000000     1.455965000000    -0.526514000000     1.007825032230
         H            2.409824000000    -1.534677000000    -0.065270000000     1.007825032230
         H            1.117876000000    -0.858158000000    -1.048615000000     1.007825032230
      Gh(C)          -2.057266000000    -0.936950000000    -0.531782000000    12.000000000000
      Gh(C)          -2.184932000000     0.344508000000     0.249614000000    12.000000000000
      Gh(O)          -1.064190000000     1.198352000000     0.077039000000    15.994914619570
      Gh(H)          -0.954906000000     1.372540000000    -0.862252000000     1.007825032230
      Gh(H)          -2.929025000000    -1.575620000000    -0.377756000000     1.007825032230
      Gh(H)          -1.165835000000    -1.484887000000    -0.218990000000     1.007825032230
      Gh(H)          -1.982100000000    -0.734326000000    -1.604803000000     1.007825032230
      Gh(H)          -2.230479000000     0.136995000000     1.321525000000     1.007825032230
      Gh(H)          -3.107893000000     0.876704000000    -0.013975000000     1.007825032230

  Running in c1 symmetry.

  Rotational constants: A =      0.17635  B =      0.04772  C =      0.04381 [cm^-1]
  Rotational constants: A =   5286.79367  B =   1430.55159  C =   1313.53813 [MHz]
  Nuclear repulsion =   82.207224576197135

  Charge       = 0
  Multiplicity = 1
  Electrons    = 26
  Nalpha       = 13
  Nbeta        = 13

  ==> Algorithm <==

  SCF Algorithm Type is DF.
  DIIS enabled.
  MOM disabled.
  Fractional occupation disabled.
  Guess Type is SAD.
  Energy threshold   = 1.00e-08
  Density threshold  = 1.00e-08
  Integral threshold = 1.00e-12

  ==> Primary Basis <==

  Basis Set: AUG-CC-PVTZ
    Blend: AUG-CC-PVTZ
    Number of shells: 192
    Number of basis functions: 552
    Number of Cartesian functions: 630
    Spherical Harmonics?: true
    Max angular momentum: 3

   => Loading Basis Set <=

    Name: (AUG-CC-PVTZ AUX)
    Role: JKFIT
    Keyword: DF_BASIS_SCF
    atoms 1-2, 10-11 entry C          line   162 file /home/kchung25/anaconda3/envs/p415env/share/psi4/basis/aug-cc-pvtz-jkfit.gbs 
    atoms 3, 12      entry O          line   286 file /home/kchung25/anaconda3/envs/p415env/share/psi4/basis/aug-cc-pvtz-jkfit.gbs 
    atoms 4-9, 13-18 entry H          line    70 file /home/kchung25/anaconda3/envs/p415env/share/psi4/basis/aug-cc-pvtz-jkfit.gbs 

  ==> Integral Setup <==

  ==> DiskDFJK: Density-Fitted J/K Matrices <==

    J tasked:                  Yes
    K tasked:                  Yes
    wK tasked:                  No
    OpenMP threads:              1
    Integrals threads:           1
    Memory [MiB]:             7152
    Algorithm:                Core
    Integral Cache:           LOAD
    Schwarz Cutoff:          1E-12
    Fitting Condition:       1E-10

   => Auxiliary Basis Set <=

  Basis Set: (AUG-CC-PVTZ AUX)
    Blend: AUG-CC-PVTZ-JKFIT
    Number of shells: 348
    Number of basis functions: 1176
    Number of Cartesian functions: 1446
    Spherical Harmonics?: true
    Max angular momentum: 4

  Minimum eigenvalue in the overlap matrix is 7.9538941252E-06.
  Reciprocal condition number of the overlap matrix is 4.1925193868E-07.
    Using symmetric orthogonalization.

  ==> Pre-Iterations <==

  SCF Guess: Superposition of Atomic Densities via on-the-fly atomic UHF (no occupation information).

   -------------------------
    Irrep   Nso     Nmo    
   -------------------------
     A        552     552 
   -------------------------
    Total     552     552
   -------------------------

  ==> Iterations <==

                           Total Energy        Delta E     RMS |[F,P]|

   @DF-RHF iter SAD:  -153.46204862798209   -1.53462e+02   0.00000e+00 
   @DF-RHF iter   1:  -154.00227416442186   -5.40226e-01   9.38014e-04 DIIS/ADIIS
   @DF-RHF iter   2:  -154.11443345385513   -1.12159e-01   4.96946e-04 DIIS/ADIIS
   @DF-RHF iter   3:  -154.14266957569029   -2.82361e-02   8.40372e-05 DIIS
   @DF-RHF iter   4:  -154.14425843334317   -1.58886e-03   3.22927e-05 DIIS
   @DF-RHF iter   5:  -154.14444692212328   -1.88489e-04   6.26707e-06 DIIS
   @DF-RHF iter   6:  -154.14445749379504   -1.05717e-05   1.45485e-06 DIIS
   @DF-RHF iter   7:  -154.14445825990899   -7.66114e-07   4.18396e-07 DIIS
   @DF-RHF iter   8:  -154.14445831793495   -5.80260e-08   1.31100e-07 DIIS
   @DF-RHF iter   9:  -154.14445832438278   -6.44783e-09   3.34293e-08 DIIS
   @DF-RHF iter  10:  -154.14445832483196   -4.49177e-10   6.56575e-09 DIIS
  Energy and wave function converged.


  ==> Post-Iterations <==

    Orbital Energies [Eh]
    ---------------------

    Doubly Occupied:                                                      

       1A    -20.557751     2A    -11.273446     3A    -11.217312  
       4A     -1.364291     5A     -1.012785     6A     -0.846171  
       7A     -0.689776     8A     -0.627575     9A     -0.607508  
      10A     -0.546237    11A     -0.527248    12A     -0.479411  
      13A     -0.442273  

    Virtual:                                                              

      14A      0.020589    15A      0.033884    16A      0.035502  
      17A      0.039510    18A      0.050008    19A      0.051179  
      20A      0.052953    21A      0.060551    22A      0.074804  
      23A      0.076662    24A      0.081497    25A      0.084636  
      26A      0.090286    27A      0.098558    28A      0.111362  
      29A      0.119514    30A      0.120711    31A      0.130023  
      32A      0.132163    33A      0.137671    34A      0.138994  
      35A      0.147771    36A      0.149947    37A      0.155325  
      38A      0.159887    39A      0.163254    40A      0.170154  
      41A      0.191819    42A      0.192988    43A      0.200427  
      44A      0.209298    45A      0.221249    46A      0.227340  
      47A      0.236211    48A      0.244849    49A      0.252450  
      50A      0.261150    51A      0.269208    52A      0.271250  
      53A      0.276207    54A      0.291691    55A      0.295900  
      56A      0.297840    57A      0.304223    58A      0.309727  
      59A      0.315610    60A      0.324849    61A      0.326175  
      62A      0.330249    63A      0.337846    64A      0.345511  
      65A      0.347611    66A      0.352838    67A      0.353657  
      68A      0.361824    69A      0.365680    70A      0.369849  
      71A      0.380559    72A      0.387575    73A      0.396797  
      74A      0.399092    75A      0.401344    76A      0.410443  
      77A      0.415878    78A      0.416618    79A      0.425076  
      80A      0.431973    81A      0.436772    82A      0.438254  
      83A      0.445398    84A      0.451377    85A      0.459802  
      86A      0.460841    87A      0.471811    88A      0.479356  
      89A      0.489586    90A      0.491656    91A      0.494464  
      92A      0.499350    93A      0.504455    94A      0.511546  
      95A      0.515905    96A      0.522826    97A      0.528163  
      98A      0.532365    99A      0.537287   100A      0.545493  
     101A      0.549255   102A      0.557709   103A      0.568832  
     104A      0.573103   105A      0.585572   106A      0.593546  
     107A      0.596267   108A      0.600545   109A      0.606490  
     110A      0.616682   111A      0.625337   112A      0.628399  
     113A      0.636478   114A      0.648310   115A      0.649426  
     116A      0.665161   117A      0.675939   118A      0.682386  
     119A      0.685061   120A      0.695283   121A      0.703396  
     122A      0.714305   123A      0.728507   124A      0.731627  
     125A      0.735609   126A      0.762384   127A      0.766486  
     128A      0.768719   129A      0.792285   130A      0.800724  
     131A      0.814945   132A      0.825797   133A      0.835035  
     134A      0.842828   135A      0.853750   136A      0.859862  
     137A      0.867363   138A      0.874294   139A      0.874847  
     140A      0.894567   141A      0.905116   142A      0.913019  
     143A      0.929708   144A      0.936211   145A      0.939932  
     146A      0.948805   147A      0.956014   148A      0.961764  
     149A      0.974567   150A      0.983984   151A      0.993227  
     152A      0.999727   153A      1.007460   154A      1.011082  
     155A      1.017897   156A      1.029162   157A      1.031590  
     158A      1.036884   159A      1.043096   160A      1.052776  
     161A      1.056827   162A      1.068881   163A      1.072635  
     164A      1.082653   165A      1.086311   166A      1.093223  
     167A      1.103756   168A      1.106942   169A      1.114687  
     170A      1.122423   171A      1.128406   172A      1.130290  
     173A      1.142272   174A      1.146577   175A      1.152241  
     176A      1.160229   177A      1.163831   178A      1.166334  
     179A      1.179268   180A      1.185915   181A      1.188761  
     182A      1.203241   183A      1.212524   184A      1.218087  
     185A      1.223467   186A      1.230409   187A      1.249616  
     188A      1.254499   189A      1.262565   190A      1.270857  
     191A      1.273613   192A      1.276662   193A      1.288871  
     194A      1.299807   195A      1.307157   196A      1.314706  
     197A      1.317059   198A      1.322719   199A      1.340586  
     200A      1.343496   201A      1.352215   202A      1.364825  
     203A      1.370307   204A      1.380568   205A      1.395312  
     206A      1.396342   207A      1.402032   208A      1.412314  
     209A      1.426382   210A      1.432242   211A      1.438241  
     212A      1.452857   213A      1.454128   214A      1.456803  
     215A      1.474091   216A      1.489564   217A      1.494175  
     218A      1.510529   219A      1.519817   220A      1.533765  
     221A      1.539405   222A      1.543784   223A      1.560145  
     224A      1.568213   225A      1.583295   226A      1.591516  
     227A      1.593759   228A      1.606945   229A      1.622357  
     230A      1.633990   231A      1.646928   232A      1.648181  
     233A      1.657740   234A      1.675546   235A      1.685068  
     236A      1.692807   237A      1.701806   238A      1.709339  
     239A      1.726310   240A      1.730163   241A      1.739230  
     242A      1.745350   243A      1.753374   244A      1.769715  
     245A      1.776687   246A      1.795082   247A      1.801482  
     248A      1.816355   249A      1.825535   250A      1.831320  
     251A      1.838399   252A      1.858646   253A      1.872954  
     254A      1.882795   255A      1.884299   256A      1.911692  
     257A      1.923665   258A      1.939312   259A      1.942206  
     260A      1.959953   261A      1.968712   262A      1.973038  
     263A      1.979318   264A      1.986467   265A      2.012592  
     266A      2.019945   267A      2.037484   268A      2.051954  
     269A      2.057439   270A      2.058423   271A      2.068065  
     272A      2.080953   273A      2.096588   274A      2.104751  
     275A      2.123203   276A      2.135209   277A      2.144896  
     278A      2.150234   279A      2.187378   280A      2.197679  
     281A      2.210535   282A      2.230499   283A      2.238021  
     284A      2.246383   285A      2.252038   286A      2.264287  
     287A      2.268018   288A      2.279163   289A      2.284360  
     290A      2.305499   291A      2.311754   292A      2.337809  
     293A      2.354865   294A      2.375679   295A      2.384940  
     296A      2.404886   297A      2.420410   298A      2.437126  
     299A      2.463357   300A      2.475476   301A      2.499875  
     302A      2.512060   303A      2.533096   304A      2.557240  
     305A      2.575742   306A      2.614432   307A      2.646160  
     308A      2.686665   309A      2.691262   310A      2.704191  
     311A      2.720880   312A      2.743215   313A      2.765517  
     314A      2.782366   315A      2.798455   316A      2.812222  
     317A      2.851543   318A      2.857960   319A      2.866030  
     320A      2.884661   321A      2.899031   322A      2.924447  
     323A      2.959967   324A      2.966412   325A      3.050254  
     326A      3.064748   327A      3.069834   328A      3.113727  
     329A      3.115018   330A      3.125512   331A      3.144201  
     332A      3.170734   333A      3.193014   334A      3.225601  
     335A      3.232900   336A      3.277984   337A      3.298560  
     338A      3.325431   339A      3.345537   340A      3.376690  
     341A      3.426048   342A      3.460381   343A      3.473738  
     344A      3.498234   345A      3.535036   346A      3.552537  
     347A      3.563052   348A      3.599276   349A      3.621453  
     350A      3.655897   351A      3.663942   352A      3.682713  
     353A      3.685009   354A      3.716451   355A      3.747444  
     356A      3.791262   357A      3.803674   358A      3.810601  
     359A      3.819146   360A      3.836448   361A      3.891119  
     362A      3.898594   363A      3.921118   364A      3.956691  
     365A      3.966437   366A      3.976833   367A      3.982480  
     368A      4.018392   369A      4.034883   370A      4.070838  
     371A      4.094032   372A      4.116020   373A      4.130437  
     374A      4.154483   375A      4.158252   376A      4.165528  
     377A      4.171262   378A      4.182326   379A      4.207646  
     380A      4.215728   381A      4.228838   382A      4.253265  
     383A      4.260504   384A      4.262700   385A      4.299556  
     386A      4.326391   387A      4.337448   388A      4.360920  
     389A      4.372390   390A      4.390001   391A      4.394007  
     392A      4.435988   393A      4.444690   394A      4.474610  
     395A      4.483255   396A      4.496257   397A      4.504080  
     398A      4.523701   399A      4.550926   400A      4.560355  
     401A      4.577609   402A      4.598296   403A      4.609888  
     404A      4.635252   405A      4.650382   406A      4.664307  
     407A      4.679980   408A      4.697076   409A      4.702469  
     410A      4.718658   411A      4.735350   412A      4.763162  
     413A      4.771191   414A      4.794838   415A      4.819011  
     416A      4.827710   417A      4.838840   418A      4.847066  
     419A      4.857738   420A      4.884751   421A      4.897268  
     422A      4.914728   423A      4.928614   424A      4.933379  
     425A      4.964663   426A      4.980560   427A      4.998778  
     428A      5.010986   429A      5.018589   430A      5.036259  
     431A      5.055058   432A      5.060818   433A      5.075397  
     434A      5.077654   435A      5.097766   436A      5.130993  
     437A      5.164752   438A      5.181503   439A      5.195056  
     440A      5.214979   441A      5.217849   442A      5.246733  
     443A      5.259306   444A      5.272108   445A      5.297681  
     446A      5.322141   447A      5.363387   448A      5.367000  
     449A      5.378088   450A      5.396838   451A      5.407413  
     452A      5.427633   453A      5.436422   454A      5.450579  
     455A      5.478811   456A      5.515785   457A      5.528604  
     458A      5.542858   459A      5.558695   460A      5.581693  
     461A      5.595091   462A      5.604542   463A      5.612159  
     464A      5.638544   465A      5.651629   466A      5.666605  
     467A      5.677691   468A      5.692455   469A      5.696792  
     470A      5.730976   471A      5.768023   472A      5.793217  
     473A      5.799123   474A      5.822691   475A      5.833305  
     476A      5.867522   477A      5.901810   478A      5.946705  
     479A      6.004796   480A      6.030903   481A      6.062385  
     482A      6.099137   483A      6.129324   484A      6.144876  
     485A      6.175107   486A      6.186469   487A      6.215094  
     488A      6.226787   489A      6.273711   490A      6.298730  
     491A      6.324056   492A      6.369118   493A      6.407089  
     494A      6.490176   495A      6.516364   496A      6.717365  
     497A      6.758577   498A      6.791250   499A      6.793032  
     500A      6.832013   501A      6.879919   502A      6.992146  
     503A      7.018570   504A      7.031242   505A      7.085036  
     506A      7.104628   507A      7.128088   508A      7.190802  
     509A      7.224924   510A      7.346767   511A      7.418105  
     512A      7.446973   513A      7.570321   514A      7.604541  
     515A      7.703061   516A      7.790584   517A      7.806057  
     518A      7.853979   519A      7.884629   520A      7.912592  
     521A      7.958427   522A      7.982471   523A      8.041680  
     524A      8.071958   525A      8.166399   526A      8.223154  
     527A      8.287684   528A      8.324837   529A      8.336047  
     530A      8.382096   531A      8.427256   532A      8.559725  
     533A      8.673920   534A      8.899014   535A      8.977038  
     536A     10.021099   537A     10.135563   538A     10.250175  
     539A     10.376728   540A     10.709447   541A     10.738539  
     542A     11.039043   543A     12.144346   544A     12.504971  
     545A     13.308178   546A     14.149778   547A     16.880146  
     548A     17.786581   549A     18.503294   550A     52.841666  
     551A     54.437196   552A     67.330139  

    Final Occupation by Irrep:
              A 
    DOCC [    13 ]
    NA   [    13 ]
    NB   [    13 ]

  @DF-RHF Final Energy:  -154.14445832483196

   => Energetics <=

    Nuclear Repulsion Energy =             82.2072245761971345
    One-Electron Energy =                -372.3197952875057695
    Two-Electron Energy =                 135.9681123864766903
    Total Energy =                       -154.1444583248319589

Computation Completed


Properties will be evaluated at   0.000000,   0.000000,   0.000000 [a0]

Properties computed using the SCF density matrix


 Multipole Moments:

 ------------------------------------------------------------------------------------
     Multipole            Electronic (a.u.)      Nuclear  (a.u.)        Total (a.u.)
 ------------------------------------------------------------------------------------

 L = 1.  Multiply by 2.5417464519 to convert [e a0] to [Debye]
 Dipole X            :        -87.5808445           87.5641299           -0.0167147
 Dipole Y            :          9.1605513           -8.7372716            0.4232798
 Dipole Z            :         -5.9201403            5.3535053           -0.5666350
 Magnitude           :                                                    0.7074746

 ------------------------------------------------------------------------------------

*** tstop() called on moses-razer at Sat Mar  1 23:03:24 2025
Module time:
	user time   =      98.77 seconds =       1.65 minutes
	system time =       1.46 seconds =       0.02 minutes
	total time  =        100 seconds =       1.67 minutes
Total time:
	user time   =     291.09 seconds =       4.85 minutes
	system time =       5.38 seconds =       0.09 minutes
	total time  =        297 seconds =       4.95 minutes

  //>>>>>>>>>>>>>>>>>>>>>>>>>>>>>>>>>>>//
  //            Monomer B HF           //
  //<<<<<<<<<<<<<<<<<<<<<<<<<<<<<<<<<<<//

   => Libint2 <=

    Primary   basis highest AM E, G, H:  5, 4, 3
    Auxiliary basis highest AM E, G, H:  6, 5, 4
    Onebody   basis highest AM E, G, H:  6, 5, 4
    Solid Harmonics ordering:            gaussian

*** tstart() called on moses-razer
*** at Sat Mar  1 23:03:24 2025

   => Loading Basis Set <=

    Name: AUG-CC-PVTZ
    Role: ORBITAL
    Keyword: BASIS
    atoms 1-2, 10-11 entry C          line   239 file /home/kchung25/anaconda3/envs/p415env/share/psi4/basis/aug-cc-pvtz.gbs 
    atoms 3, 12      entry O          line   331 file /home/kchung25/anaconda3/envs/p415env/share/psi4/basis/aug-cc-pvtz.gbs 
    atoms 4-9, 13-18 entry H          line    40 file /home/kchung25/anaconda3/envs/p415env/share/psi4/basis/aug-cc-pvtz.gbs 


         ---------------------------------------------------------
                                   SCF
               by Justin Turney, Rob Parrish, Andy Simmonett
                          and Daniel G. A. Smith
                              RHF Reference
                        1 Threads,   9536 MiB Core
         ---------------------------------------------------------

  ==> Geometry <==

    Molecular point group: c1
    Full point group: C1

    Geometry (in Angstrom), charge = 0, multiplicity = 1:

       Center              X                  Y                   Z               Mass       
    ------------   -----------------  -----------------  -----------------  -----------------
      Gh(C)           2.584823000000     0.580861000000    -0.414759000000    12.000000000000
      Gh(C)           1.760466000000    -0.661007000000    -0.173359000000    12.000000000000
      Gh(O)           0.998046000000    -0.577244000000     1.001583000000    15.994914619570
      Gh(H)           0.375593000000     0.156131000000     0.879066000000     1.007825032230
      Gh(H)           3.189531000000     0.489143000000    -1.319989000000     1.007825032230
      Gh(H)           3.250277000000     0.766859000000     0.430319000000     1.007825032230
      Gh(H)           1.937739000000     1.455965000000    -0.526514000000     1.007825032230
      Gh(H)           2.409824000000    -1.534677000000    -0.065270000000     1.007825032230
      Gh(H)           1.117876000000    -0.858158000000    -1.048615000000     1.007825032230
         C           -2.057266000000    -0.936950000000    -0.531782000000    12.000000000000
         C           -2.184932000000     0.344508000000     0.249614000000    12.000000000000
         O           -1.064190000000     1.198352000000     0.077039000000    15.994914619570
         H           -0.954906000000     1.372540000000    -0.862252000000     1.007825032230
         H           -2.929025000000    -1.575620000000    -0.377756000000     1.007825032230
         H           -1.165835000000    -1.484887000000    -0.218990000000     1.007825032230
         H           -1.982100000000    -0.734326000000    -1.604803000000     1.007825032230
         H           -2.230479000000     0.136995000000     1.321525000000     1.007825032230
         H           -3.107893000000     0.876704000000    -0.013975000000     1.007825032230

  Running in c1 symmetry.

  Rotational constants: A =      0.17635  B =      0.04772  C =      0.04381 [cm^-1]
  Rotational constants: A =   5286.79367  B =   1430.55159  C =   1313.53813 [MHz]
  Nuclear repulsion =   82.009101713869228

  Charge       = 0
  Multiplicity = 1
  Electrons    = 26
  Nalpha       = 13
  Nbeta        = 13

  ==> Algorithm <==

  SCF Algorithm Type is DF.
  DIIS enabled.
  MOM disabled.
  Fractional occupation disabled.
  Guess Type is SAD.
  Energy threshold   = 1.00e-08
  Density threshold  = 1.00e-08
  Integral threshold = 1.00e-12

  ==> Primary Basis <==

  Basis Set: AUG-CC-PVTZ
    Blend: AUG-CC-PVTZ
    Number of shells: 192
    Number of basis functions: 552
    Number of Cartesian functions: 630
    Spherical Harmonics?: true
    Max angular momentum: 3

   => Loading Basis Set <=

    Name: (AUG-CC-PVTZ AUX)
    Role: JKFIT
    Keyword: DF_BASIS_SCF
    atoms 1-2, 10-11 entry C          line   162 file /home/kchung25/anaconda3/envs/p415env/share/psi4/basis/aug-cc-pvtz-jkfit.gbs 
    atoms 3, 12      entry O          line   286 file /home/kchung25/anaconda3/envs/p415env/share/psi4/basis/aug-cc-pvtz-jkfit.gbs 
    atoms 4-9, 13-18 entry H          line    70 file /home/kchung25/anaconda3/envs/p415env/share/psi4/basis/aug-cc-pvtz-jkfit.gbs 

  ==> Integral Setup <==

  ==> DiskDFJK: Density-Fitted J/K Matrices <==

    J tasked:                  Yes
    K tasked:                  Yes
    wK tasked:                  No
    OpenMP threads:              1
    Integrals threads:           1
    Memory [MiB]:             7152
    Algorithm:                Core
    Integral Cache:           LOAD
    Schwarz Cutoff:          1E-12
    Fitting Condition:       1E-10

   => Auxiliary Basis Set <=

  Basis Set: (AUG-CC-PVTZ AUX)
    Blend: AUG-CC-PVTZ-JKFIT
    Number of shells: 348
    Number of basis functions: 1176
    Number of Cartesian functions: 1446
    Spherical Harmonics?: true
    Max angular momentum: 4

  Minimum eigenvalue in the overlap matrix is 7.9538941252E-06.
  Reciprocal condition number of the overlap matrix is 4.1925193868E-07.
    Using symmetric orthogonalization.

  ==> Pre-Iterations <==

  SCF Guess: Superposition of Atomic Densities via on-the-fly atomic UHF (no occupation information).

   -------------------------
    Irrep   Nso     Nmo    
   -------------------------
     A        552     552 
   -------------------------
    Total     552     552
   -------------------------

  ==> Iterations <==

                           Total Energy        Delta E     RMS |[F,P]|

   @DF-RHF iter SAD:  -153.44173381300809   -1.53442e+02   0.00000e+00 
   @DF-RHF iter   1:  -154.00367195475224   -5.61938e-01   9.36864e-04 DIIS/ADIIS
   @DF-RHF iter   2:  -154.11527312546508   -1.11601e-01   4.96320e-04 DIIS/ADIIS
   @DF-RHF iter   3:  -154.14325759637475   -2.79845e-02   8.42791e-05 DIIS
   @DF-RHF iter   4:  -154.14483914415135   -1.58155e-03   3.23671e-05 DIIS
   @DF-RHF iter   5:  -154.14502849534540   -1.89351e-04   6.21395e-06 DIIS
   @DF-RHF iter   6:  -154.14503877595570   -1.02806e-05   1.42277e-06 DIIS
   @DF-RHF iter   7:  -154.14503950795492   -7.31999e-07   4.05232e-07 DIIS
   @DF-RHF iter   8:  -154.14503956298580   -5.50309e-08   1.28685e-07 DIIS
   @DF-RHF iter   9:  -154.14503956920680   -6.22100e-09   3.30896e-08 DIIS
   @DF-RHF iter  10:  -154.14503956964512   -4.38320e-10   6.32101e-09 DIIS
  Energy and wave function converged.


  ==> Post-Iterations <==

    Orbital Energies [Eh]
    ---------------------

    Doubly Occupied:                                                      

       1A    -20.554443     2A    -11.273769     3A    -11.219090  
       4A     -1.357840     5A     -1.015392     6A     -0.848227  
       7A     -0.684774     8A     -0.624224     9A     -0.612183  
      10A     -0.544204    11A     -0.525341    12A     -0.481974  
      13A     -0.443607  

    Virtual:                                                              

      14A      0.023940    15A      0.033077    16A      0.035332  
      17A      0.039395    18A      0.050019    19A      0.052241  
      20A      0.052950    21A      0.061101    22A      0.073451  
      23A      0.078276    24A      0.081306    25A      0.085192  
      26A      0.095397    27A      0.104034    28A      0.115289  
      29A      0.117162    30A      0.124161    31A      0.127907  
      32A      0.133338    33A      0.136118    34A      0.140244  
      35A      0.143933    36A      0.150063    37A      0.156623  
      38A      0.159316    39A      0.169395    40A      0.184562  
      41A      0.186485    42A      0.198517    43A      0.201680  
      44A      0.205063    45A      0.222314    46A      0.226568  
      47A      0.241061    48A      0.249788    49A      0.255166  
      50A      0.262151    51A      0.270892    52A      0.272398  
      53A      0.280439    54A      0.292772    55A      0.293506  
      56A      0.301719    57A      0.310315    58A      0.312153  
      59A      0.315798    60A      0.319030    61A      0.328893  
      62A      0.329920    63A      0.334422    64A      0.338465  
      65A      0.348930    66A      0.352177    67A      0.356334  
      68A      0.362627    69A      0.368831    70A      0.376515  
      71A      0.381868    72A      0.389095    73A      0.401469  
      74A      0.404116    75A      0.414818    76A      0.416855  
      77A      0.417564    78A      0.428854    79A      0.430544  
      80A      0.436706    81A      0.442247    82A      0.448257  
      83A      0.451844    84A      0.454154    85A      0.464281  
      86A      0.468282    87A      0.473201    88A      0.478388  
      89A      0.480688    90A      0.482746    91A      0.488387  
      92A      0.493752    93A      0.503876    94A      0.510994  
      95A      0.517754    96A      0.522996    97A      0.538381  
      98A      0.543111    99A      0.548906   100A      0.552165  
     101A      0.552811   102A      0.558379   103A      0.565450  
     104A      0.572075   105A      0.583965   106A      0.592568  
     107A      0.594243   108A      0.596075   109A      0.618034  
     110A      0.619726   111A      0.629028   112A      0.634213  
     113A      0.642878   114A      0.646916   115A      0.650982  
     116A      0.661188   117A      0.675402   118A      0.678086  
     119A      0.689831   120A      0.695769   121A      0.706576  
     122A      0.715580   123A      0.728932   124A      0.737349  
     125A      0.741277   126A      0.758513   127A      0.768451  
     128A      0.787720   129A      0.800530   130A      0.807910  
     131A      0.823109   132A      0.827059   133A      0.835620  
     134A      0.846539   135A      0.862931   136A      0.867883  
     137A      0.874422   138A      0.884058   139A      0.895540  
     140A      0.898042   141A      0.917618   142A      0.920919  
     143A      0.930274   144A      0.939709   145A      0.945442  
     146A      0.957030   147A      0.962906   148A      0.972315  
     149A      0.973796   150A      0.993004   151A      0.996048  
     152A      1.001953   153A      1.008226   154A      1.018452  
     155A      1.021892   156A      1.030757   157A      1.033241  
     158A      1.045269   159A      1.051530   160A      1.060465  
     161A      1.069511   162A      1.073490   163A      1.082449  
     164A      1.086566   165A      1.092636   166A      1.098788  
     167A      1.106012   168A      1.114995   169A      1.119188  
     170A      1.124570   171A      1.129710   172A      1.133886  
     173A      1.144338   174A      1.151496   175A      1.155384  
     176A      1.158501   177A      1.167114   178A      1.172529  
     179A      1.173769   180A      1.192032   181A      1.193529  
     182A      1.198451   183A      1.211103   184A      1.222342  
     185A      1.233327   186A      1.243865   187A      1.246629  
     188A      1.257100   189A      1.261778   190A      1.268527  
     191A      1.273144   192A      1.280471   193A      1.285464  
     194A      1.291189   195A      1.300160   196A      1.306027  
     197A      1.319558   198A      1.327637   199A      1.343382  
     200A      1.347282   201A      1.355365   202A      1.376725  
     203A      1.379052   204A      1.392378   205A      1.396668  
     206A      1.403637   207A      1.408216   208A      1.422227  
     209A      1.426583   210A      1.438593   211A      1.453529  
     212A      1.462062   213A      1.466496   214A      1.480143  
     215A      1.484951   216A      1.490822   217A      1.505905  
     218A      1.511875   219A      1.515460   220A      1.530382  
     221A      1.541020   222A      1.542546   223A      1.564872  
     224A      1.581672   225A      1.590366   226A      1.601438  
     227A      1.604458   228A      1.616842   229A      1.630015  
     230A      1.632198   231A      1.635412   232A      1.648750  
     233A      1.654470   234A      1.678475   235A      1.679710  
     236A      1.697315   237A      1.702883   238A      1.719805  
     239A      1.733248   240A      1.742390   241A      1.753594  
     242A      1.764082   243A      1.773854   244A      1.780525  
     245A      1.797591   246A      1.821323   247A      1.832075  
     248A      1.835100   249A      1.838724   250A      1.843073  
     251A      1.853494   252A      1.866806   253A      1.879258  
     254A      1.882847   255A      1.909610   256A      1.912508  
     257A      1.928550   258A      1.934108   259A      1.954471  
     260A      1.967704   261A      1.982306   262A      1.983303  
     263A      2.000059   264A      2.008467   265A      2.019281  
     266A      2.034982   267A      2.046597   268A      2.056879  
     269A      2.058700   270A      2.079001   271A      2.082044  
     272A      2.088483   273A      2.090651   274A      2.114903  
     275A      2.133142   276A      2.148078   277A      2.151218  
     278A      2.169826   279A      2.180691   280A      2.204672  
     281A      2.207315   282A      2.217829   283A      2.240067  
     284A      2.247898   285A      2.257902   286A      2.264713  
     287A      2.275273   288A      2.279806   289A      2.294900  
     290A      2.316059   291A      2.332490   292A      2.355908  
     293A      2.360486   294A      2.373091   295A      2.385997  
     296A      2.402913   297A      2.420324   298A      2.456025  
     299A      2.465922   300A      2.482212   301A      2.502178  
     302A      2.531544   303A      2.545057   304A      2.563649  
     305A      2.599418   306A      2.622389   307A      2.647397  
     308A      2.681123   309A      2.694406   310A      2.719683  
     311A      2.730120   312A      2.736753   313A      2.750177  
     314A      2.767670   315A      2.787580   316A      2.826045  
     317A      2.834815   318A      2.852312   319A      2.862704  
     320A      2.889034   321A      2.920214   322A      2.927832  
     323A      2.971193   324A      2.988179   325A      3.006823  
     326A      3.023327   327A      3.051466   328A      3.056469  
     329A      3.093118   330A      3.108611   331A      3.146830  
     332A      3.189466   333A      3.211115   334A      3.235135  
     335A      3.247499   336A      3.306844   337A      3.323529  
     338A      3.384374   339A      3.438525   340A      3.441200  
     341A      3.448130   342A      3.484860   343A      3.517474  
     344A      3.532660   345A      3.556533   346A      3.595917  
     347A      3.654452   348A      3.673367   349A      3.676789  
     350A      3.686593   351A      3.692362   352A      3.708687  
     353A      3.730579   354A      3.748677   355A      3.765712  
     356A      3.773497   357A      3.815462   358A      3.833455  
     359A      3.845974   360A      3.864259   361A      3.885282  
     362A      3.913044   363A      3.953811   364A      3.967815  
     365A      3.984006   366A      3.994913   367A      3.997786  
     368A      4.020898   369A      4.040410   370A      4.085272  
     371A      4.103390   372A      4.125807   373A      4.134194  
     374A      4.148191   375A      4.156182   376A      4.166556  
     377A      4.178196   378A      4.193770   379A      4.212666  
     380A      4.221235   381A      4.228470   382A      4.260197  
     383A      4.263623   384A      4.283363   385A      4.311907  
     386A      4.328764   387A      4.343886   388A      4.361267  
     389A      4.367557   390A      4.373741   391A      4.410966  
     392A      4.424712   393A      4.443613   394A      4.484978  
     395A      4.487567   396A      4.494077   397A      4.514447  
     398A      4.537396   399A      4.550110   400A      4.580136  
     401A      4.594785   402A      4.602639   403A      4.631496  
     404A      4.639465   405A      4.653222   406A      4.665701  
     407A      4.672771   408A      4.681269   409A      4.695460  
     410A      4.718513   411A      4.725738   412A      4.756853  
     413A      4.775173   414A      4.795830   415A      4.801704  
     416A      4.821047   417A      4.837311   418A      4.854977  
     419A      4.883687   420A      4.892575   421A      4.906702  
     422A      4.922040   423A      4.928803   424A      4.945809  
     425A      4.970785   426A      4.972072   427A      4.987590  
     428A      5.007663   429A      5.025231   430A      5.037544  
     431A      5.044121   432A      5.064394   433A      5.090337  
     434A      5.107057   435A      5.134304   436A      5.156806  
     437A      5.168512   438A      5.182406   439A      5.194823  
     440A      5.211818   441A      5.216730   442A      5.263175  
     443A      5.269326   444A      5.274839   445A      5.285469  
     446A      5.335009   447A      5.369279   448A      5.391679  
     449A      5.399746   450A      5.403515   451A      5.422091  
     452A      5.437295   453A      5.446704   454A      5.466643  
     455A      5.501583   456A      5.526838   457A      5.536186  
     458A      5.555832   459A      5.566994   460A      5.582113  
     461A      5.592770   462A      5.602323   463A      5.625696  
     464A      5.636955   465A      5.650578   466A      5.671881  
     467A      5.699209   468A      5.711089   469A      5.717853  
     470A      5.725540   471A      5.753525   472A      5.778985  
     473A      5.811074   474A      5.820402   475A      5.868172  
     476A      5.879801   477A      5.913467   478A      5.972539  
     479A      6.012460   480A      6.043268   481A      6.074136  
     482A      6.081811   483A      6.121203   484A      6.153561  
     485A      6.179525   486A      6.185195   487A      6.242460  
     488A      6.264738   489A      6.290250   490A      6.295365  
     491A      6.358454   492A      6.385277   493A      6.426186  
     494A      6.481679   495A      6.531834   496A      6.725176  
     497A      6.756418   498A      6.783852   499A      6.851465  
     500A      6.876796   501A      6.890134   502A      6.975949  
     503A      7.011547   504A      7.032287   505A      7.079970  
     506A      7.126691   507A      7.161557   508A      7.197563  
     509A      7.295684   510A      7.365367   511A      7.409631  
     512A      7.437534   513A      7.535092   514A      7.547144  
     515A      7.661271   516A      7.791777   517A      7.819137  
     518A      7.863287   519A      7.876622   520A      7.881656  
     521A      7.945641   522A      7.958918   523A      8.043328  
     524A      8.069424   525A      8.175412   526A      8.214575  
     527A      8.285653   528A      8.318155   529A      8.333065  
     530A      8.447225   531A      8.475545   532A      8.660052  
     533A      8.684290   534A      8.949770   535A      9.063716  
     536A     10.055035   537A     10.146868   538A     10.312433  
     539A     10.451259   540A     10.674995   541A     10.805273  
     542A     11.125195   543A     12.142712   544A     12.443875  
     545A     13.361067   546A     14.353803   547A     16.673112  
     548A     17.785431   549A     18.651357   550A     52.914559  
     551A     54.128873   552A     67.754050  

    Final Occupation by Irrep:
              A 
    DOCC [    13 ]
    NA   [    13 ]
    NB   [    13 ]

  @DF-RHF Final Energy:  -154.14503956964512

   => Energetics <=

    Nuclear Repulsion Energy =             82.0091017138692280
    One-Electron Energy =                -371.9381430745959847
    Two-Electron Energy =                 135.7840017910816073
    Total Energy =                       -154.1450395696451210

Computation Completed


Properties will be evaluated at   0.000000,   0.000000,   0.000000 [a0]

Properties computed using the SCF density matrix


 Multipole Moments:

 ------------------------------------------------------------------------------------
     Multipole            Electronic (a.u.)      Nuclear  (a.u.)        Total (a.u.)
 ------------------------------------------------------------------------------------

 L = 1.  Multiply by 2.5417464519 to convert [e a0] to [Debye]
 Dipole X            :         87.1439510          -87.5641374           -0.4201865
 Dipole Y            :         -9.0537805            8.7372810           -0.3164995
 Dipole Z            :          4.8577649           -5.3534940           -0.4957290
 Magnitude           :                                                    0.7228249

 ------------------------------------------------------------------------------------

*** tstop() called on moses-razer at Sat Mar  1 23:05:04 2025
Module time:
	user time   =      98.90 seconds =       1.65 minutes
	system time =       1.35 seconds =       0.02 minutes
	total time  =        100 seconds =       1.67 minutes
Total time:
	user time   =     389.99 seconds =       6.50 minutes
	system time =       6.73 seconds =       0.11 minutes
	total time  =        397 seconds =       6.62 minutes
  Constructing Basis Sets for SAPT...

   => Loading Basis Set <=

    Name: (AUG-CC-PVTZ AUX)
    Role: RIFIT
    Keyword: DF_BASIS_SAPT
    atoms 1-2, 10-11 entry C          line   148 file /home/kchung25/anaconda3/envs/p415env/share/psi4/basis/aug-cc-pvtz-ri.gbs 
    atoms 3, 12      entry O          line   264 file /home/kchung25/anaconda3/envs/p415env/share/psi4/basis/aug-cc-pvtz-ri.gbs 
    atoms 4-9, 13-18 entry H          line    30 file /home/kchung25/anaconda3/envs/p415env/share/psi4/basis/aug-cc-pvtz-ri.gbs 

   => Loading Basis Set <=

    Name: (AUG-CC-PVTZ AUX)
    Role: JKFIT
    Keyword: DF_BASIS_ELST
    atoms 1-2, 10-11 entry C          line   162 file /home/kchung25/anaconda3/envs/p415env/share/psi4/basis/aug-cc-pvtz-jkfit.gbs 
    atoms 3, 12      entry O          line   286 file /home/kchung25/anaconda3/envs/p415env/share/psi4/basis/aug-cc-pvtz-jkfit.gbs 
    atoms 4-9, 13-18 entry H          line    70 file /home/kchung25/anaconda3/envs/p415env/share/psi4/basis/aug-cc-pvtz-jkfit.gbs 


  //>>>>>>>>>>>>>>>>>>>>>>>>>>>>>>>>>>>//
  //               SAPT2+              //
  //<<<<<<<<<<<<<<<<<<<<<<<<<<<<<<<<<<<//


*** tstart() called on moses-razer
*** at Sat Mar  1 23:05:04 2025

        SAPT2+  
    Ed Hohenstein
     6 June 2009

      Orbital Information
  --------------------------
    NSO        =       552
    NMO        =       552
    NRI        =      1188
    NOCC A     =        13
    NOCC B     =        13
    FOCC A     =         0
    FOCC B     =         0
    NVIR A     =       539
    NVIR B     =       539

    Estimated memory usage: 3939.5 MB

    Natural Orbital Cutoff:   1.000E-06
    Disp(T3) Truncation:            Yes
    CCD (vv|vv) Truncation:         Yes
    MBPT T2 Truncation:             Yes

    Monomer A: 306 virtual orbitals dropped
    Monomer B: 304 virtual orbitals dropped

    Elst10,r            =    -0.014978012220 [Eh]
    Exch10 (S^2)        =     0.016349439441 [Eh]
    Exch10              =     0.016467573153 [Eh]
    Ind20,r (A<-B)      =    -0.002627380168 [Eh]
    Ind20,r (B<-A)      =    -0.004592276471 [Eh]
    Ind20,r             =    -0.007219656638 [Eh]
    Exch-Ind20,r (A<-B) =     0.001919690615 [Eh]
    Exch-Ind20,r (B<-A) =     0.002717291693 [Eh]
    Exch-Ind20,r        =     0.004636982307 [Eh]
    Disp20              =    -0.009737379929 [Eh]
    Disp20 (NO)         =    -0.008584103216 [Eh]
    Exch-Disp20         =     0.001465199172 [Eh]
    Elst12,r            =    -0.000891344586 [Eh]
    Exch11              =     0.000164470352 [Eh]
    Exch12              =     0.002967481969 [Eh]
    Ind22               =    -0.001477308800 [Eh]
    Disp21              =     0.000605377325 [Eh]
    Disp22 (SDQ)        =    -0.000101191098 [Eh]

    (i =   1 of  13)        247 seconds
    (i =   2 of  13)        491 seconds
    (i =   3 of  13)        736 seconds
    (i =   4 of  13)        980 seconds
    (i =   5 of  13)       1373 seconds
    (i =   6 of  13)       1823 seconds
    (i =   7 of  13)       2134 seconds
    (i =   8 of  13)       2472 seconds
    (i =   9 of  13)       2779 seconds
    (i =  10 of  13)       3069 seconds
    (i =  11 of  13)       3319 seconds
    (i =  12 of  13)       3564 seconds
    (i =  13 of  13)       3805 seconds

    Disp220 (T)         =    -0.000771928996 [Eh]

    (i =   1 of  13)        311 seconds
    (i =   2 of  13)        784 seconds
    (i =   3 of  13)       1070 seconds
    (i =   4 of  13)       1538 seconds
    (i =   5 of  13)       2007 seconds
    (i =   6 of  13)       2476 seconds
    (i =   7 of  13)       2943 seconds
    (i =   8 of  13)       3412 seconds
    (i =   9 of  13)       3848 seconds
    (i =  10 of  13)       4130 seconds
    (i =  11 of  13)       4456 seconds
    (i =  12 of  13)       4726 seconds
    (i =  13 of  13)       4976 seconds

    Disp202 (T)         =    -0.000721927891 [Eh]

    Disp22 (T)          =    -0.001493856888 [Eh]

    Est. Disp220 (T)    =    -0.000875637877 [Eh]
    Est. Disp202 (T)    =    -0.000818919109 [Eh]

    Est. Disp22 (T)     =    -0.001694556986 [Eh]

    SAPT Results 
  --------------------------------------------------------------------------------------------------------
    Electrostatics                -15.86935681 [mEh]      -9.95817174 [kcal/mol]     -41.66499055 [kJ/mol]
      Elst10,r                    -14.97801222 [mEh]      -9.39884457 [kcal/mol]     -39.32476567 [kJ/mol]
      Elst12,r                     -0.89134459 [mEh]      -0.55932717 [kcal/mol]      -2.34022489 [kJ/mol]

    Exchange                       19.59952547 [mEh]      12.29888792 [kcal/mol]      51.45854704 [kJ/mol]
      Exch10                       16.46757315 [mEh]      10.33355816 [kcal/mol]      43.23560736 [kJ/mol]
      Exch10(S^2)                  16.34943944 [mEh]      10.25942814 [kcal/mol]      42.92544734 [kJ/mol]
      Exch11(S^2)                   0.16447035 [mEh]       0.10320670 [kcal/mol]       0.43181685 [kJ/mol]
      Exch12(S^2)                   2.96748197 [mEh]       1.86212305 [kcal/mol]       7.79112284 [kJ/mol]

    Induction                      -5.00372104 [mEh]      -3.13988236 [kcal/mol]     -13.13726779 [kJ/mol]
      Ind20,r                      -7.21965664 [mEh]      -4.53040294 [kcal/mol]     -18.95520589 [kJ/mol]
      Ind22                        -1.47730880 [mEh]      -0.92702527 [kcal/mol]      -3.87867372 [kJ/mol]
      Exch-Ind20,r                  4.63698231 [mEh]       2.90975033 [kcal/mol]      12.17439537 [kJ/mol]
      Exch-Ind22                    0.94883387 [mEh]       0.59540224 [kcal/mol]       2.49116299 [kJ/mol]
      delta HF,r (2)               -1.89257179 [mEh]      -1.18760673 [kcal/mol]      -4.96894654 [kJ/mol]

    Dispersion                     -9.46255152 [mEh]      -5.93784072 [kcal/mol]     -24.84392558 [kJ/mol]
      Disp20                       -9.73737993 [mEh]      -6.11029816 [kcal/mol]     -25.56548748 [kJ/mol]
      Disp21                        0.60537732 [mEh]       0.37988001 [kcal/mol]       1.58941795 [kJ/mol]
      Disp22 (SDQ)                 -0.10119110 [mEh]      -0.06349837 [kcal/mol]      -0.26567719 [kJ/mol]
      Disp22 (T)                   -1.49385689 [mEh]      -0.93740935 [kcal/mol]      -3.92212072 [kJ/mol]
      Est. Disp22 (T)              -1.69455699 [mEh]      -1.06335056 [kcal/mol]      -4.44905875 [kJ/mol]
      Exch-Disp20                   1.46519917 [mEh]       0.91942636 [kcal/mol]       3.84687990 [kJ/mol]

  Total HF                         -2.98568518 [mEh]      -1.87354574 [kcal/mol]      -7.83891537 [kJ/mol]
  Total SAPT0                     -11.25786594 [mEh]      -7.06441753 [kcal/mol]     -29.55752296 [kJ/mol]
  Total SAPT2                      -9.54573313 [mEh]      -5.99003798 [kcal/mol]     -25.06231889 [kJ/mol]
  Total SAPT2+                    -10.73610389 [mEh]      -6.73700690 [kcal/mol]     -28.18763689 [kJ/mol]

  Special recipe for scaled SAPT0 (see Manual):
    Electrostatics sSAPT0         -14.97801222 [mEh]      -9.39884457 [kcal/mol]     -39.32476567 [kJ/mol]
    Exchange sSAPT0                16.46757315 [mEh]      10.33355816 [kcal/mol]      43.23560736 [kJ/mol]
    Induction sSAPT0               -4.37400384 [mEh]      -2.74472885 [kcal/mol]     -11.48394549 [kJ/mol]
    Dispersion sSAPT0              -8.24019010 [mEh]      -5.17079735 [kcal/mol]     -21.63461613 [kJ/mol]
  Total sSAPT0                    -11.12463301 [mEh]      -6.98081260 [kcal/mol]     -29.20771993 [kJ/mol]
  --------------------------------------------------------------------------------------------------------

*** tstop() called on moses-razer at Sun Mar  2 02:07:23 2025
Module time:
	user time   =   10795.47 seconds =     179.92 minutes
	system time =     130.97 seconds =       2.18 minutes
	total time  =      10939 seconds =     182.32 minutes
Total time:
	user time   =   11185.68 seconds =     186.43 minutes
	system time =     137.70 seconds =       2.30 minutes
	total time  =      11336 seconds =     188.93 minutes

    Psi4 stopped on: Sunday, 02 March 2025 02:07AM
    Psi4 wall time for execution: 3:08:57.31

*** Psi4 exiting successfully. Buy a developer a beer!
