
    -----------------------------------------------------------------------
          Psi4: An Open-Source Ab Initio Electronic Structure Package
                               Psi4 1.9 release

                         Git: Rev {} zzzzzzz 


    D. G. A. Smith, L. A. Burns, A. C. Simmonett, R. M. Parrish,
    M. C. Schieber, R. Galvelis, P. Kraus, H. Kruse, R. Di Remigio,
    A. Alenaizan, A. M. James, S. Lehtola, J. P. Misiewicz, M. Scheurer,
    R. A. Shaw, J. B. Schriber, Y. Xie, Z. L. Glick, D. A. Sirianni,
    J. S. O'Brien, J. M. Waldrop, A. Kumar, E. G. Hohenstein,
    B. P. Pritchard, B. R. Brooks, H. F. Schaefer III, A. Yu. Sokolov,
    K. Patkowski, A. E. DePrince III, U. Bozkaya, R. A. King,
    F. A. Evangelista, J. M. Turney, T. D. Crawford, C. D. Sherrill,
    J. Chem. Phys. 152(18) 184108 (2020). https://doi.org/10.1063/5.0006002

                            Additional Code Authors
    E. T. Seidl, C. L. Janssen, E. F. Valeev, M. L. Leininger,
    J. F. Gonthier, R. M. Richard, H. R. McAlexander, M. Saitow, X. Wang,
    P. Verma, M. H. Lechner, A. Jiang, S. Behnle, A. G. Heide,
    M. F. Herbst, and D. L. Poole

             Previous Authors, Complete List of Code Contributors,
                       and Citations for Specific Modules
    https://github.com/psi4/psi4/blob/master/codemeta.json
    https://github.com/psi4/psi4/graphs/contributors
    http://psicode.org/psi4manual/master/introduction.html#citing-psifour

    -----------------------------------------------------------------------


    Psi4 started on: Sunday, 02 March 2025 03:03AM

    Process ID: 205842
    Host:       moses-razer
    PSIDATADIR: /home/kchung25/anaconda3/envs/psi4_19/share/psi4
    Memory:     500.0 MiB
    Threads:    1
    
  ==> Input File <==

--------------------------------------------------------------------------
MEMORY 10 GB

molecule dimer {
0 1
C   -2.030209   0.997443  -0.592376
C   -1.989538  -0.031828   0.501206
O   -1.814960  -1.297402  -0.098206
H   -1.828193  -1.971728   0.583684
H   -2.150918   1.999901  -0.178206
H   -2.860130   0.800002  -1.272927
H   -1.104947   0.974569  -1.172596
H   -2.918904   0.000104   1.087134
H   -1.163856   0.188909   1.195581
--
0 1
C    1.633417   1.259863   0.300772
C    1.550833  -0.238458   0.213553
O    2.729829  -0.701850  -0.406992
H    2.645768  -1.642561  -0.571650
H    0.748347   1.670689   0.791741
H    1.707554   1.695977  -0.697447
H    2.515552   1.563226   0.867642
H    0.658644  -0.540506  -0.353616
H    1.445112  -0.666676   1.223317

units ang
no_reorient
no_com
symmetry c1
}

set {
basis        aug-cc-pVTZ
scf_type     df
}

energy("sapt2+")
--------------------------------------------------------------------------

  Memory set to   9.313 GiB by Python driver.

Scratch directory: /scratch/
   => Loading Basis Set <=

    Name: AUG-CC-PVTZ
    Role: ORBITAL
    Keyword: BASIS
    atoms 1-2, 10-11 entry C          line   239 file /home/kchung25/anaconda3/envs/p415env/share/psi4/basis/aug-cc-pvtz.gbs 
    atoms 3, 12      entry O          line   331 file /home/kchung25/anaconda3/envs/p415env/share/psi4/basis/aug-cc-pvtz.gbs 
    atoms 4-9, 13-18 entry H          line    40 file /home/kchung25/anaconda3/envs/p415env/share/psi4/basis/aug-cc-pvtz.gbs 

   => Loading Basis Set <=

    Name: AUG-CC-PVTZ
    Role: ORBITAL
    Keyword: BASIS
    atoms 1-2, 10-11 entry C          line   239 file /home/kchung25/anaconda3/envs/p415env/share/psi4/basis/aug-cc-pvtz.gbs 
    atoms 3, 12      entry O          line   331 file /home/kchung25/anaconda3/envs/p415env/share/psi4/basis/aug-cc-pvtz.gbs 
    atoms 4-9, 13-18 entry H          line    40 file /home/kchung25/anaconda3/envs/p415env/share/psi4/basis/aug-cc-pvtz.gbs 


  //>>>>>>>>>>>>>>>>>>>>>>>>>>>>>>>>>>>//
  //              Dimer HF             //
  //<<<<<<<<<<<<<<<<<<<<<<<<<<<<<<<<<<<//

   => Libint2 <=

    Primary   basis highest AM E, G, H:  5, 4, 3
    Auxiliary basis highest AM E, G, H:  6, 5, 4
    Onebody   basis highest AM E, G, H:  6, 5, 4
    Solid Harmonics ordering:            gaussian

*** tstart() called on moses-razer
*** at Sun Mar  2 03:03:27 2025

   => Loading Basis Set <=

    Name: AUG-CC-PVTZ
    Role: ORBITAL
    Keyword: BASIS
    atoms 1-2, 10-11 entry C          line   239 file /home/kchung25/anaconda3/envs/p415env/share/psi4/basis/aug-cc-pvtz.gbs 
    atoms 3, 12      entry O          line   331 file /home/kchung25/anaconda3/envs/p415env/share/psi4/basis/aug-cc-pvtz.gbs 
    atoms 4-9, 13-18 entry H          line    40 file /home/kchung25/anaconda3/envs/p415env/share/psi4/basis/aug-cc-pvtz.gbs 


         ---------------------------------------------------------
                                   SCF
               by Justin Turney, Rob Parrish, Andy Simmonett
                          and Daniel G. A. Smith
                              RHF Reference
                        1 Threads,   9536 MiB Core
         ---------------------------------------------------------

  ==> Geometry <==

    Molecular point group: c1
    Full point group: C1

    Geometry (in Angstrom), charge = 0, multiplicity = 1:

       Center              X                  Y                   Z               Mass       
    ------------   -----------------  -----------------  -----------------  -----------------
         C           -2.030209000000     0.997443000000    -0.592376000000    12.000000000000
         C           -1.989538000000    -0.031828000000     0.501206000000    12.000000000000
         O           -1.814960000000    -1.297402000000    -0.098206000000    15.994914619570
         H           -1.828193000000    -1.971728000000     0.583684000000     1.007825032230
         H           -2.150918000000     1.999901000000    -0.178206000000     1.007825032230
         H           -2.860130000000     0.800002000000    -1.272927000000     1.007825032230
         H           -1.104947000000     0.974569000000    -1.172596000000     1.007825032230
         H           -2.918904000000     0.000104000000     1.087134000000     1.007825032230
         H           -1.163856000000     0.188909000000     1.195581000000     1.007825032230
         C            1.633417000000     1.259863000000     0.300772000000    12.000000000000
         C            1.550833000000    -0.238458000000     0.213553000000    12.000000000000
         O            2.729829000000    -0.701850000000    -0.406992000000    15.994914619570
         H            2.645768000000    -1.642561000000    -0.571650000000     1.007825032230
         H            0.748347000000     1.670689000000     0.791741000000     1.007825032230
         H            1.707554000000     1.695977000000    -0.697447000000     1.007825032230
         H            2.515552000000     1.563226000000     0.867642000000     1.007825032230
         H            0.658644000000    -0.540506000000    -0.353616000000     1.007825032230
         H            1.445112000000    -0.666676000000     1.223317000000     1.007825032230

  Running in c1 symmetry.

  Rotational constants: A =      0.15434  B =      0.04234  C =      0.03630 [cm^-1]
  Rotational constants: A =   4627.09127  B =   1269.29003  C =   1088.22822 [MHz]
  Nuclear repulsion =  251.577807378895443

  Charge       = 0
  Multiplicity = 1
  Electrons    = 52
  Nalpha       = 26
  Nbeta        = 26

  ==> Algorithm <==

  SCF Algorithm Type is DF.
  DIIS enabled.
  MOM disabled.
  Fractional occupation disabled.
  Guess Type is SAD.
  Energy threshold   = 1.00e-08
  Density threshold  = 1.00e-08
  Integral threshold = 1.00e-12

  ==> Primary Basis <==

  Basis Set: AUG-CC-PVTZ
    Blend: AUG-CC-PVTZ
    Number of shells: 192
    Number of basis functions: 552
    Number of Cartesian functions: 630
    Spherical Harmonics?: true
    Max angular momentum: 3

   => Loading Basis Set <=

    Name: (AUG-CC-PVTZ AUX)
    Role: JKFIT
    Keyword: DF_BASIS_SCF
    atoms 1-2, 10-11 entry C          line   162 file /home/kchung25/anaconda3/envs/p415env/share/psi4/basis/aug-cc-pvtz-jkfit.gbs 
    atoms 3, 12      entry O          line   286 file /home/kchung25/anaconda3/envs/p415env/share/psi4/basis/aug-cc-pvtz-jkfit.gbs 
    atoms 4-9, 13-18 entry H          line    70 file /home/kchung25/anaconda3/envs/p415env/share/psi4/basis/aug-cc-pvtz-jkfit.gbs 

  ==> Integral Setup <==

  ==> DiskDFJK: Density-Fitted J/K Matrices <==

    J tasked:                  Yes
    K tasked:                  Yes
    wK tasked:                  No
    OpenMP threads:              1
    Integrals threads:           1
    Memory [MiB]:             7152
    Algorithm:                Core
    Integral Cache:           SAVE
    Schwarz Cutoff:          1E-12
    Fitting Condition:       1E-10

   => Auxiliary Basis Set <=

  Basis Set: (AUG-CC-PVTZ AUX)
    Blend: AUG-CC-PVTZ-JKFIT
    Number of shells: 348
    Number of basis functions: 1176
    Number of Cartesian functions: 1446
    Spherical Harmonics?: true
    Max angular momentum: 4

  Minimum eigenvalue in the overlap matrix is 6.7505224224E-06.
  Reciprocal condition number of the overlap matrix is 3.5106698771E-07.
    Using symmetric orthogonalization.

  ==> Pre-Iterations <==

  SCF Guess: Superposition of Atomic Densities via on-the-fly atomic UHF (no occupation information).

   -------------------------
    Irrep   Nso     Nmo    
   -------------------------
     A        552     552 
   -------------------------
    Total     552     552
   -------------------------

  ==> Iterations <==

                           Total Energy        Delta E     RMS |[F,P]|

   @DF-RHF iter SAD:  -307.08014437153719   -3.07080e+02   0.00000e+00 
   @DF-RHF iter   1:  -307.99814124368373   -9.17997e-01   1.34363e-03 ADIIS/DIIS
   @DF-RHF iter   2:  -308.22209089284928   -2.23950e-01   7.36987e-04 ADIIS/DIIS
   @DF-RHF iter   3:  -308.28481617369260   -6.27253e-02   1.20320e-04 ADIIS/DIIS
   @DF-RHF iter   4:  -308.28805865327780   -3.24248e-03   4.50645e-05 DIIS
   @DF-RHF iter   5:  -308.28841044060619   -3.51787e-04   8.21180e-06 DIIS
   @DF-RHF iter   6:  -308.28842973806582   -1.92975e-05   1.81130e-06 DIIS
   @DF-RHF iter   7:  -308.28843085936569   -1.12130e-06   5.56020e-07 DIIS
   @DF-RHF iter   8:  -308.28843094723652   -8.78708e-08   1.49679e-07 DIIS
   @DF-RHF iter   9:  -308.28843095561962   -8.38310e-09   3.69594e-08 DIIS
   @DF-RHF iter  10:  -308.28843095617248   -5.52859e-10   8.39287e-09 DIIS
  Energy and wave function converged.


  ==> Post-Iterations <==

    Orbital Energies [Eh]
    ---------------------

    Doubly Occupied:                                                      

       1A    -20.562558     2A    -20.551340     3A    -11.279103  
       4A    -11.267260     5A    -11.215080     6A    -11.208636  
       7A     -1.369277     8A     -1.357781     9A     -1.020542  
      10A     -1.009864    11A     -0.838896    12A     -0.829517  
      13A     -0.710330    14A     -0.701385    15A     -0.653546  
      16A     -0.638093    17A     -0.580406    18A     -0.570164  
      19A     -0.538458    20A     -0.535667    21A     -0.527409  
      22A     -0.520686    23A     -0.495525    24A     -0.483704  
      25A     -0.448077    26A     -0.432874  

    Virtual:                                                              

      27A      0.024727    28A      0.034758    29A      0.037374  
      30A      0.039096    31A      0.053259    32A      0.055079  
      33A      0.055784    34A      0.060381    35A      0.065273  
      36A      0.081301    37A      0.084608    38A      0.089617  
      39A      0.108067    40A      0.115355    41A      0.119599  
      42A      0.122612    43A      0.129212    44A      0.131686  
      45A      0.136133    46A      0.144097    47A      0.157189  
      48A      0.158645    49A      0.160485    50A      0.165101  
      51A      0.167648    52A      0.175676    53A      0.185995  
      54A      0.188039    55A      0.198280    56A      0.203911  
      57A      0.214097    58A      0.223448    59A      0.232708  
      60A      0.242599    61A      0.248189    62A      0.255364  
      63A      0.271574    64A      0.277329    65A      0.278650  
      66A      0.285718    67A      0.291118    68A      0.298221  
      69A      0.304276    70A      0.310712    71A      0.313757  
      72A      0.319330    73A      0.321653    74A      0.329698  
      75A      0.332854    76A      0.343155    77A      0.350076  
      78A      0.356006    79A      0.362911    80A      0.363709  
      81A      0.366083    82A      0.378317    83A      0.382866  
      84A      0.386333    85A      0.388029    86A      0.391046  
      87A      0.402684    88A      0.403771    89A      0.411508  
      90A      0.415654    91A      0.428863    92A      0.430708  
      93A      0.437060    94A      0.443699    95A      0.444612  
      96A      0.450477    97A      0.456041    98A      0.459901  
      99A      0.465243   100A      0.473194   101A      0.477932  
     102A      0.482656   103A      0.484892   104A      0.491242  
     105A      0.497340   106A      0.503667   107A      0.508287  
     108A      0.515936   109A      0.522069   110A      0.526525  
     111A      0.535682   112A      0.540175   113A      0.549031  
     114A      0.553776   115A      0.558637   116A      0.563495  
     117A      0.565404   118A      0.576914   119A      0.580105  
     120A      0.587759   121A      0.598764   122A      0.602629  
     123A      0.608354   124A      0.615899   125A      0.628256  
     126A      0.636137   127A      0.645290   128A      0.651457  
     129A      0.658392   130A      0.673977   131A      0.689008  
     132A      0.705685   133A      0.718286   134A      0.723727  
     135A      0.728383   136A      0.737195   137A      0.743394  
     138A      0.768124   139A      0.774597   140A      0.792993  
     141A      0.798988   142A      0.806417   143A      0.809836  
     144A      0.817291   145A      0.826724   146A      0.834413  
     147A      0.843008   148A      0.851707   149A      0.855368  
     150A      0.860646   151A      0.865854   152A      0.877533  
     153A      0.884724   154A      0.902199   155A      0.904455  
     156A      0.905071   157A      0.916359   158A      0.917377  
     159A      0.928373   160A      0.935271   161A      0.941240  
     162A      0.943601   163A      0.952523   164A      0.956715  
     165A      0.966874   166A      0.975824   167A      0.983984  
     168A      1.000762   169A      1.005042   170A      1.010191  
     171A      1.016238   172A      1.017366   173A      1.027276  
     174A      1.034186   175A      1.038872   176A      1.046080  
     177A      1.051537   178A      1.055260   179A      1.058690  
     180A      1.071467   181A      1.086036   182A      1.089624  
     183A      1.094439   184A      1.101294   185A      1.106848  
     186A      1.109894   187A      1.118143   188A      1.120654  
     189A      1.129446   190A      1.133226   191A      1.141852  
     192A      1.154010   193A      1.159837   194A      1.172861  
     195A      1.174831   196A      1.181340   197A      1.193836  
     198A      1.201823   199A      1.204958   200A      1.213042  
     201A      1.219156   202A      1.226046   203A      1.237120  
     204A      1.248858   205A      1.250825   206A      1.264114  
     207A      1.275217   208A      1.280001   209A      1.302040  
     210A      1.306748   211A      1.313293   212A      1.325377  
     213A      1.346046   214A      1.348487   215A      1.351587  
     216A      1.355502   217A      1.360704   218A      1.367802  
     219A      1.377036   220A      1.395119   221A      1.399562  
     222A      1.409946   223A      1.419906   224A      1.439878  
     225A      1.452047   226A      1.454767   227A      1.472436  
     228A      1.476065   229A      1.490001   230A      1.494576  
     231A      1.500072   232A      1.505406   233A      1.520451  
     234A      1.530393   235A      1.544976   236A      1.558825  
     237A      1.563704   238A      1.571312   239A      1.587731  
     240A      1.598073   241A      1.606600   242A      1.620200  
     243A      1.640542   244A      1.649684   245A      1.662531  
     246A      1.667861   247A      1.675150   248A      1.676186  
     249A      1.688560   250A      1.699227   251A      1.703352  
     252A      1.715934   253A      1.719207   254A      1.728847  
     255A      1.732817   256A      1.740110   257A      1.756406  
     258A      1.762224   259A      1.768724   260A      1.778222  
     261A      1.790114   262A      1.791870   263A      1.797810  
     264A      1.805723   265A      1.815077   266A      1.831810  
     267A      1.835775   268A      1.845528   269A      1.855808  
     270A      1.861590   271A      1.894289   272A      1.907233  
     273A      1.912512   274A      1.928424   275A      1.936303  
     276A      1.943335   277A      1.962634   278A      1.966573  
     279A      1.990684   280A      2.006785   281A      2.008668  
     282A      2.021334   283A      2.032700   284A      2.040643  
     285A      2.047949   286A      2.072292   287A      2.081176  
     288A      2.086166   289A      2.096974   290A      2.105064  
     291A      2.118841   292A      2.127430   293A      2.133735  
     294A      2.148942   295A      2.155338   296A      2.169809  
     297A      2.183542   298A      2.195632   299A      2.229669  
     300A      2.237835   301A      2.253467   302A      2.259767  
     303A      2.264716   304A      2.283901   305A      2.304263  
     306A      2.313685   307A      2.333429   308A      2.353820  
     309A      2.375577   310A      2.404468   311A      2.422767  
     312A      2.438548   313A      2.450804   314A      2.475528  
     315A      2.480719   316A      2.492158   317A      2.508061  
     318A      2.520234   319A      2.558089   320A      2.575225  
     321A      2.598448   322A      2.614278   323A      2.634048  
     324A      2.653109   325A      2.677675   326A      2.719062  
     327A      2.745029   328A      2.759049   329A      2.839254  
     330A      2.856710   331A      2.884773   332A      2.893401  
     333A      2.913207   334A      2.918327   335A      2.953058  
     336A      2.962361   337A      2.974241   338A      2.996463  
     339A      3.011433   340A      3.016551   341A      3.046035  
     342A      3.049066   343A      3.063547   344A      3.126199  
     345A      3.139925   346A      3.164987   347A      3.227636  
     348A      3.275439   349A      3.297534   350A      3.347457  
     351A      3.423212   352A      3.442255   353A      3.471618  
     354A      3.475973   355A      3.489870   356A      3.510657  
     357A      3.527974   358A      3.540200   359A      3.570295  
     360A      3.577172   361A      3.608274   362A      3.611705  
     363A      3.634896   364A      3.649464   365A      3.663242  
     366A      3.676552   367A      3.685289   368A      3.699063  
     369A      3.710517   370A      3.724740   371A      3.751452  
     372A      3.761432   373A      3.763734   374A      3.792906  
     375A      3.822312   376A      3.834793   377A      3.842682  
     378A      3.864521   379A      3.874825   380A      3.894097  
     381A      3.908235   382A      3.912251   383A      3.920930  
     384A      3.936858   385A      3.956867   386A      3.988416  
     387A      3.994638   388A      4.004010   389A      4.013616  
     390A      4.015809   391A      4.037563   392A      4.040033  
     393A      4.046367   394A      4.062942   395A      4.070774  
     396A      4.089581   397A      4.099704   398A      4.109821  
     399A      4.115243   400A      4.140274   401A      4.162712  
     402A      4.174581   403A      4.176863   404A      4.196149  
     405A      4.212883   406A      4.226088   407A      4.232001  
     408A      4.252497   409A      4.259934   410A      4.277441  
     411A      4.302191   412A      4.318516   413A      4.338142  
     414A      4.352970   415A      4.362656   416A      4.377210  
     417A      4.391141   418A      4.400579   419A      4.417745  
     420A      4.427834   421A      4.490315   422A      4.499417  
     423A      4.518138   424A      4.523740   425A      4.542005  
     426A      4.560660   427A      4.569920   428A      4.589317  
     429A      4.615920   430A      4.629573   431A      4.635772  
     432A      4.642668   433A      4.661239   434A      4.682100  
     435A      4.690126   436A      4.703517   437A      4.734577  
     438A      4.750557   439A      4.782009   440A      4.791996  
     441A      4.805895   442A      4.822737   443A      4.856270  
     444A      4.871696   445A      4.875167   446A      4.903981  
     447A      4.912132   448A      4.934335   449A      4.938700  
     450A      4.960424   451A      4.984674   452A      4.997393  
     453A      5.024148   454A      5.050888   455A      5.067856  
     456A      5.075503   457A      5.082418   458A      5.102409  
     459A      5.121045   460A      5.131500   461A      5.140866  
     462A      5.153848   463A      5.177362   464A      5.195357  
     465A      5.200708   466A      5.223719   467A      5.232232  
     468A      5.267784   469A      5.294083   470A      5.314039  
     471A      5.330842   472A      5.342814   473A      5.365904  
     474A      5.369256   475A      5.400700   476A      5.407607  
     477A      5.435833   478A      5.477843   479A      5.492714  
     480A      5.504362   481A      5.513029   482A      5.521157  
     483A      5.544301   484A      5.567523   485A      5.585692  
     486A      5.599801   487A      5.613243   488A      5.637396  
     489A      5.680306   490A      5.698018   491A      5.749376  
     492A      5.767090   493A      5.786420   494A      5.795275  
     495A      5.812038   496A      5.845055   497A      5.854602  
     498A      5.879974   499A      6.026555   500A      6.046595  
     501A      6.071708   502A      6.083750   503A      6.105025  
     504A      6.121689   505A      6.156780   506A      6.194305  
     507A      6.218772   508A      6.243270   509A      6.260904  
     510A      6.289125   511A      6.301414   512A      6.332294  
     513A      6.434707   514A      6.491010   515A      6.713003  
     516A      6.735526   517A      6.749416   518A      6.805011  
     519A      6.821094   520A      6.859326   521A      6.895985  
     522A      6.912096   523A      6.946428   524A      6.959181  
     525A      6.982690   526A      6.997577   527A      7.140566  
     528A      7.179909   529A      7.363217   530A      7.374390  
     531A      7.381306   532A      7.391443   533A      7.518683  
     534A      7.538841   535A      7.553653   536A      7.556437  
     537A      7.625558   538A      7.646924   539A      7.842377  
     540A      7.862709   541A      7.980655   542A      7.993217  
     543A      8.266746   544A      8.297089   545A      8.636760  
     546A      8.658419   547A     16.059556   548A     16.372797  
     549A     18.085322   550A     18.186238   551A     18.456790  
     552A     19.024606  

    Final Occupation by Irrep:
              A 
    DOCC [    26 ]
    NA   [    26 ]
    NB   [    26 ]

  @DF-RHF Final Energy:  -308.28843095617248

   => Energetics <=

    Nuclear Repulsion Energy =            251.5778073788954430
    One-Electron Energy =                -919.0401202796040252
    Two-Electron Energy =                 359.1738819445361628
    Total Energy =                       -308.2884309561724763

Computation Completed


Properties will be evaluated at   0.000000,   0.000000,   0.000000 [a0]

Properties computed using the SCF density matrix


 Multipole Moments:

 ------------------------------------------------------------------------------------
     Multipole            Electronic (a.u.)      Nuclear  (a.u.)        Total (a.u.)
 ------------------------------------------------------------------------------------

 L = 1.  Multiply by 2.5417464519 to convert [e a0] to [Debye]
 Dipole X            :         -0.6829672           -0.0000019           -0.6829691
 Dipole Y            :         -0.2586861            0.0000189           -0.2586672
 Dipole Z            :          0.7431395            0.0000057            0.7431452
 Magnitude           :                                                    1.0419310

 ------------------------------------------------------------------------------------

*** tstop() called on moses-razer at Sun Mar  2 03:06:14 2025
Module time:
	user time   =     162.99 seconds =       2.72 minutes
	system time =       3.90 seconds =       0.07 minutes
	total time  =        167 seconds =       2.78 minutes
Total time:
	user time   =     162.99 seconds =       2.72 minutes
	system time =       3.90 seconds =       0.07 minutes
	total time  =        167 seconds =       2.78 minutes

  //>>>>>>>>>>>>>>>>>>>>>>>>>>>>>>>>>>>//
  //            Monomer A HF           //
  //<<<<<<<<<<<<<<<<<<<<<<<<<<<<<<<<<<<//

   => Libint2 <=

    Primary   basis highest AM E, G, H:  5, 4, 3
    Auxiliary basis highest AM E, G, H:  6, 5, 4
    Onebody   basis highest AM E, G, H:  6, 5, 4
    Solid Harmonics ordering:            gaussian

*** tstart() called on moses-razer
*** at Sun Mar  2 03:06:14 2025

   => Loading Basis Set <=

    Name: AUG-CC-PVTZ
    Role: ORBITAL
    Keyword: BASIS
    atoms 1-2, 10-11 entry C          line   239 file /home/kchung25/anaconda3/envs/p415env/share/psi4/basis/aug-cc-pvtz.gbs 
    atoms 3, 12      entry O          line   331 file /home/kchung25/anaconda3/envs/p415env/share/psi4/basis/aug-cc-pvtz.gbs 
    atoms 4-9, 13-18 entry H          line    40 file /home/kchung25/anaconda3/envs/p415env/share/psi4/basis/aug-cc-pvtz.gbs 


         ---------------------------------------------------------
                                   SCF
               by Justin Turney, Rob Parrish, Andy Simmonett
                          and Daniel G. A. Smith
                              RHF Reference
                        1 Threads,   9536 MiB Core
         ---------------------------------------------------------

  ==> Geometry <==

    Molecular point group: c1
    Full point group: C1

    Geometry (in Angstrom), charge = 0, multiplicity = 1:

       Center              X                  Y                   Z               Mass       
    ------------   -----------------  -----------------  -----------------  -----------------
         C           -2.030209000000     0.997443000000    -0.592376000000    12.000000000000
         C           -1.989538000000    -0.031828000000     0.501206000000    12.000000000000
         O           -1.814960000000    -1.297402000000    -0.098206000000    15.994914619570
         H           -1.828193000000    -1.971728000000     0.583684000000     1.007825032230
         H           -2.150918000000     1.999901000000    -0.178206000000     1.007825032230
         H           -2.860130000000     0.800002000000    -1.272927000000     1.007825032230
         H           -1.104947000000     0.974569000000    -1.172596000000     1.007825032230
         H           -2.918904000000     0.000104000000     1.087134000000     1.007825032230
         H           -1.163856000000     0.188909000000     1.195581000000     1.007825032230
      Gh(C)           1.633417000000     1.259863000000     0.300772000000    12.000000000000
      Gh(C)           1.550833000000    -0.238458000000     0.213553000000    12.000000000000
      Gh(O)           2.729829000000    -0.701850000000    -0.406992000000    15.994914619570
      Gh(H)           2.645768000000    -1.642561000000    -0.571650000000     1.007825032230
      Gh(H)           0.748347000000     1.670689000000     0.791741000000     1.007825032230
      Gh(H)           1.707554000000     1.695977000000    -0.697447000000     1.007825032230
      Gh(H)           2.515552000000     1.563226000000     0.867642000000     1.007825032230
      Gh(H)           0.658644000000    -0.540506000000    -0.353616000000     1.007825032230
      Gh(H)           1.445112000000    -0.666676000000     1.223317000000     1.007825032230

  Running in c1 symmetry.

  Rotational constants: A =      0.15434  B =      0.04234  C =      0.03630 [cm^-1]
  Rotational constants: A =   4627.09127  B =   1269.29003  C =   1088.22822 [MHz]
  Nuclear repulsion =   82.261471981337536

  Charge       = 0
  Multiplicity = 1
  Electrons    = 26
  Nalpha       = 13
  Nbeta        = 13

  ==> Algorithm <==

  SCF Algorithm Type is DF.
  DIIS enabled.
  MOM disabled.
  Fractional occupation disabled.
  Guess Type is SAD.
  Energy threshold   = 1.00e-08
  Density threshold  = 1.00e-08
  Integral threshold = 1.00e-12

  ==> Primary Basis <==

  Basis Set: AUG-CC-PVTZ
    Blend: AUG-CC-PVTZ
    Number of shells: 192
    Number of basis functions: 552
    Number of Cartesian functions: 630
    Spherical Harmonics?: true
    Max angular momentum: 3

   => Loading Basis Set <=

    Name: (AUG-CC-PVTZ AUX)
    Role: JKFIT
    Keyword: DF_BASIS_SCF
    atoms 1-2, 10-11 entry C          line   162 file /home/kchung25/anaconda3/envs/p415env/share/psi4/basis/aug-cc-pvtz-jkfit.gbs 
    atoms 3, 12      entry O          line   286 file /home/kchung25/anaconda3/envs/p415env/share/psi4/basis/aug-cc-pvtz-jkfit.gbs 
    atoms 4-9, 13-18 entry H          line    70 file /home/kchung25/anaconda3/envs/p415env/share/psi4/basis/aug-cc-pvtz-jkfit.gbs 

  ==> Integral Setup <==

  ==> DiskDFJK: Density-Fitted J/K Matrices <==

    J tasked:                  Yes
    K tasked:                  Yes
    wK tasked:                  No
    OpenMP threads:              1
    Integrals threads:           1
    Memory [MiB]:             7152
    Algorithm:                Core
    Integral Cache:           LOAD
    Schwarz Cutoff:          1E-12
    Fitting Condition:       1E-10

   => Auxiliary Basis Set <=

  Basis Set: (AUG-CC-PVTZ AUX)
    Blend: AUG-CC-PVTZ-JKFIT
    Number of shells: 348
    Number of basis functions: 1176
    Number of Cartesian functions: 1446
    Spherical Harmonics?: true
    Max angular momentum: 4

  Minimum eigenvalue in the overlap matrix is 6.7505224221E-06.
  Reciprocal condition number of the overlap matrix is 3.5106698770E-07.
    Using symmetric orthogonalization.

  ==> Pre-Iterations <==

  SCF Guess: Superposition of Atomic Densities via on-the-fly atomic UHF (no occupation information).

   -------------------------
    Irrep   Nso     Nmo    
   -------------------------
     A        552     552 
   -------------------------
    Total     552     552
   -------------------------

  ==> Iterations <==

                           Total Energy        Delta E     RMS |[F,P]|

   @DF-RHF iter SAD:  -153.45027378805307   -1.53450e+02   0.00000e+00 
   @DF-RHF iter   1:  -153.99869231699037   -5.48419e-01   9.60844e-04 ADIIS/DIIS
   @DF-RHF iter   2:  -154.11084518674417   -1.12153e-01   5.34951e-04 ADIIS/DIIS
   @DF-RHF iter   3:  -154.14385539737276   -3.30102e-02   8.44151e-05 DIIS
   @DF-RHF iter   4:  -154.14545283272309   -1.59744e-03   3.23442e-05 DIIS
   @DF-RHF iter   5:  -154.14563681730948   -1.83985e-04   5.76617e-06 DIIS
   @DF-RHF iter   6:  -154.14564642688330   -9.60957e-06   1.27664e-06 DIIS
   @DF-RHF iter   7:  -154.14564698276592   -5.55883e-07   3.92260e-07 DIIS
   @DF-RHF iter   8:  -154.14564702660616   -4.38402e-08   1.04995e-07 DIIS
   @DF-RHF iter   9:  -154.14564703079111   -4.18495e-09   2.52806e-08 DIIS
   @DF-RHF iter  10:  -154.14564703105518   -2.64066e-10   4.81130e-09 DIIS
  Energy and wave function converged.


  ==> Post-Iterations <==

    Orbital Energies [Eh]
    ---------------------

    Doubly Occupied:                                                      

       1A    -20.555809     2A    -11.273800     3A    -11.210824  
       4A     -1.362015     5A     -1.014046     6A     -0.833156  
       7A     -0.703482     8A     -0.645483     9A     -0.574065  
      10A     -0.533481    11A     -0.524344    12A     -0.489192  
      13A     -0.439944  

    Virtual:                                                              

      14A      0.021937    15A      0.032583    16A      0.035755  
      17A      0.038753    18A      0.052955    19A      0.053965  
      20A      0.054924    21A      0.060184    22A      0.065194  
      23A      0.080720    24A      0.081676    25A      0.084183  
      26A      0.097953    27A      0.109182    28A      0.111771  
      29A      0.120489    30A      0.122092    31A      0.124181  
      32A      0.130636    33A      0.137927    34A      0.146935  
      35A      0.149596    36A      0.156532    37A      0.161603  
      38A      0.165035    39A      0.170892    40A      0.175859  
      41A      0.187397    42A      0.197369    43A      0.200705  
      44A      0.205730    45A      0.220414    46A      0.224927  
      47A      0.235279    48A      0.248423    49A      0.250747  
      50A      0.263074    51A      0.269784    52A      0.276318  
      53A      0.283558    54A      0.289647    55A      0.295182  
      56A      0.300106    57A      0.304360    58A      0.312067  
      59A      0.315806    60A      0.320328    61A      0.326259  
      62A      0.330644    63A      0.334830    64A      0.337945  
      65A      0.344902    66A      0.351884    67A      0.360549  
      68A      0.364005    69A      0.371654    70A      0.374405  
      71A      0.380008    72A      0.382028    73A      0.391414  
      74A      0.398400    75A      0.408375    76A      0.414607  
      77A      0.424019    78A      0.427124    79A      0.431250  
      80A      0.437969    81A      0.447990    82A      0.452348  
      83A      0.453717    84A      0.455346    85A      0.466082  
      86A      0.471250    87A      0.478334    88A      0.483028  
      89A      0.484302    90A      0.494047    91A      0.496479  
      92A      0.506796    93A      0.509839    94A      0.519514  
      95A      0.526699    96A      0.528251    97A      0.532188  
      98A      0.541264    99A      0.546211   100A      0.560810  
     101A      0.563609   102A      0.566852   103A      0.573688  
     104A      0.578167   105A      0.588293   106A      0.594166  
     107A      0.599470   108A      0.612146   109A      0.623920  
     110A      0.627023   111A      0.629743   112A      0.643661  
     113A      0.643988   114A      0.651165   115A      0.664022  
     116A      0.666586   117A      0.671577   118A      0.678435  
     119A      0.688007   120A      0.695421   121A      0.701400  
     122A      0.716776   123A      0.724151   124A      0.746225  
     125A      0.748828   126A      0.770803   127A      0.778311  
     128A      0.791163   129A      0.797068   130A      0.809027  
     131A      0.816915   132A      0.843057   133A      0.845914  
     134A      0.857099   135A      0.862749   136A      0.877190  
     137A      0.882025   138A      0.895889   139A      0.896489  
     140A      0.900949   141A      0.913587   142A      0.923800  
     143A      0.929594   144A      0.935996   145A      0.948923  
     146A      0.954789   147A      0.963123   148A      0.972862  
     149A      0.976123   150A      0.991624   151A      0.996652  
     152A      1.004536   153A      1.013746   154A      1.019053  
     155A      1.020466   156A      1.025257   157A      1.033619  
     158A      1.037776   159A      1.044794   160A      1.055779  
     161A      1.058855   162A      1.067626   163A      1.076367  
     164A      1.077843   165A      1.085844   166A      1.094104  
     167A      1.104128   168A      1.107193   169A      1.112717  
     170A      1.122646   171A      1.132375   172A      1.135955  
     173A      1.140498   174A      1.142716   175A      1.146663  
     176A      1.158249   177A      1.165131   178A      1.169563  
     179A      1.178567   180A      1.194309   181A      1.197407  
     182A      1.202397   183A      1.214298   184A      1.225894  
     185A      1.227360   186A      1.233480   187A      1.241401  
     188A      1.245443   189A      1.250495   190A      1.255872  
     191A      1.259761   192A      1.269517   193A      1.283053  
     194A      1.285295   195A      1.299542   196A      1.309001  
     197A      1.324468   198A      1.330918   199A      1.339254  
     200A      1.348627   201A      1.359677   202A      1.365883  
     203A      1.374103   204A      1.383637   205A      1.386400  
     206A      1.399288   207A      1.406241   208A      1.419759  
     209A      1.428957   210A      1.438703   211A      1.447115  
     212A      1.455927   213A      1.464643   214A      1.475592  
     215A      1.489743   216A      1.490828   217A      1.506711  
     218A      1.516148   219A      1.526186   220A      1.535750  
     221A      1.547808   222A      1.555364   223A      1.565907  
     224A      1.576044   225A      1.578904   226A      1.591058  
     227A      1.600349   228A      1.603814   229A      1.619973  
     230A      1.626727   231A      1.638698   232A      1.658125  
     233A      1.663682   234A      1.670595   235A      1.682055  
     236A      1.694558   237A      1.708946   238A      1.718838  
     239A      1.729391   240A      1.741994   241A      1.758254  
     242A      1.764239   243A      1.787770   244A      1.789278  
     245A      1.799890   246A      1.808908   247A      1.814860  
     248A      1.828558   249A      1.844921   250A      1.855075  
     251A      1.863309   252A      1.871669   253A      1.885334  
     254A      1.890829   255A      1.900906   256A      1.918162  
     257A      1.930164   258A      1.932906   259A      1.948301  
     260A      1.972469   261A      1.977600   262A      1.986019  
     263A      1.991027   264A      2.002886   265A      2.029582  
     266A      2.036592   267A      2.041475   268A      2.049837  
     269A      2.071299   270A      2.080489   271A      2.097027  
     272A      2.105156   273A      2.111360   274A      2.113685  
     275A      2.129590   276A      2.140159   277A      2.149018  
     278A      2.164921   279A      2.179026   280A      2.186341  
     281A      2.204505   282A      2.210645   283A      2.224534  
     284A      2.237473   285A      2.257143   286A      2.267915  
     287A      2.271691   288A      2.289205   289A      2.294607  
     290A      2.312788   291A      2.344468   292A      2.360409  
     293A      2.394324   294A      2.412447   295A      2.439260  
     296A      2.445325   297A      2.447705   298A      2.459014  
     299A      2.480211   300A      2.517205   301A      2.528891  
     302A      2.539396   303A      2.556933   304A      2.573395  
     305A      2.592987   306A      2.620250   307A      2.640983  
     308A      2.653987   309A      2.684555   310A      2.690337  
     311A      2.717386   312A      2.721448   313A      2.744493  
     314A      2.751006   315A      2.768110   316A      2.778515  
     317A      2.792589   318A      2.815474   319A      2.827428  
     320A      2.849878   321A      2.875574   322A      2.894213  
     323A      2.915885   324A      2.935124   325A      2.969140  
     326A      2.981122   327A      3.010904   328A      3.027736  
     329A      3.043953   330A      3.084650   331A      3.095450  
     332A      3.142201   333A      3.152571   334A      3.186610  
     335A      3.236293   336A      3.259549   337A      3.297682  
     338A      3.330798   339A      3.353574   340A      3.388854  
     341A      3.441965   342A      3.495346   343A      3.504369  
     344A      3.514479   345A      3.539890   346A      3.572848  
     347A      3.586626   348A      3.632092   349A      3.643329  
     350A      3.660953   351A      3.667707   352A      3.711873  
     353A      3.725054   354A      3.740324   355A      3.752244  
     356A      3.786002   357A      3.833005   358A      3.845001  
     359A      3.849630   360A      3.886581   361A      3.917715  
     362A      3.929778   363A      3.941075   364A      3.990688  
     365A      4.006851   366A      4.010362   367A      4.035155  
     368A      4.053150   369A      4.073001   370A      4.075562  
     371A      4.105009   372A      4.119224   373A      4.133091  
     374A      4.143488   375A      4.156412   376A      4.167482  
     377A      4.170825   378A      4.190885   379A      4.218563  
     380A      4.221188   381A      4.250793   382A      4.261428  
     383A      4.276187   384A      4.292693   385A      4.315126  
     386A      4.335979   387A      4.359461   388A      4.363102  
     389A      4.376091   390A      4.390758   391A      4.410281  
     392A      4.424538   393A      4.452854   394A      4.473071  
     395A      4.486259   396A      4.503474   397A      4.511286  
     398A      4.543830   399A      4.565230   400A      4.565359  
     401A      4.576074   402A      4.592063   403A      4.609334  
     404A      4.621879   405A      4.637263   406A      4.646450  
     407A      4.679707   408A      4.683886   409A      4.688896  
     410A      4.705424   411A      4.730701   412A      4.738101  
     413A      4.755191   414A      4.772095   415A      4.789671  
     416A      4.823159   417A      4.842619   418A      4.848562  
     419A      4.858191   420A      4.881254   421A      4.893426  
     422A      4.922839   423A      4.931026   424A      4.950101  
     425A      4.955462   426A      4.974876   427A      4.990243  
     428A      5.015615   429A      5.031481   430A      5.060041  
     431A      5.061533   432A      5.080813   433A      5.086426  
     434A      5.100048   435A      5.112167   436A      5.121050  
     437A      5.155066   438A      5.160199   439A      5.177072  
     440A      5.198979   441A      5.229744   442A      5.260842  
     443A      5.270055   444A      5.284111   445A      5.310627  
     446A      5.326088   447A      5.333050   448A      5.345472  
     449A      5.372859   450A      5.396011   451A      5.404093  
     452A      5.419820   453A      5.453223   454A      5.489239  
     455A      5.493955   456A      5.515221   457A      5.531206  
     458A      5.533873   459A      5.560144   460A      5.572641  
     461A      5.584366   462A      5.596708   463A      5.622365  
     464A      5.635018   465A      5.661398   466A      5.684427  
     467A      5.698132   468A      5.743992   469A      5.749359  
     470A      5.767443   471A      5.786716   472A      5.817605  
     473A      5.825003   474A      5.855894   475A      5.883720  
     476A      5.891244   477A      5.968020   478A      6.021667  
     479A      6.030409   480A      6.050970   481A      6.077341  
     482A      6.097757   483A      6.102832   484A      6.163344  
     485A      6.181702   486A      6.218956   487A      6.239869  
     488A      6.270981   489A      6.289105   490A      6.309172  
     491A      6.311661   492A      6.337516   493A      6.429821  
     494A      6.520231   495A      6.562203   496A      6.714109  
     497A      6.806573   498A      6.816906   499A      6.849457  
     500A      6.880102   501A      6.917194   502A      6.961997  
     503A      6.988251   504A      6.993023   505A      7.064369  
     506A      7.101408   507A      7.178425   508A      7.203510  
     509A      7.232041   510A      7.297666   511A      7.378530  
     512A      7.392290   513A      7.546326   514A      7.562227  
     515A      7.632607   516A      7.757948   517A      7.839649  
     518A      7.848517   519A      7.865272   520A      7.882768  
     521A      7.900884   522A      7.911556   523A      7.996416  
     524A      8.007118   525A      8.111153   526A      8.188480  
     527A      8.203852   528A      8.296907   529A      8.360807  
     530A      8.399318   531A      8.411198   532A      8.593711  
     533A      8.653040   534A      8.908857   535A      9.090427  
     536A      9.945927   537A     10.099398   538A     10.358747  
     539A     10.417514   540A     10.447900   541A     10.838988  
     542A     11.129592   543A     11.943406   544A     12.305523  
     545A     13.323824   546A     14.134824   547A     16.380255  
     548A     18.123627   549A     18.687598   550A     53.341927  
     551A     54.914598   552A     66.104757  

    Final Occupation by Irrep:
              A 
    DOCC [    13 ]
    NA   [    13 ]
    NB   [    13 ]

  @DF-RHF Final Energy:  -154.14564703105518

   => Energetics <=

    Nuclear Repulsion Energy =             82.2614719813375359
    One-Electron Energy =                -372.4949544803353660
    Two-Electron Energy =                 136.0878354679426536
    Total Energy =                       -154.1456470310551765

Computation Completed


Properties will be evaluated at   0.000000,   0.000000,   0.000000 [a0]

Properties computed using the SCF density matrix


 Multipole Moments:

 ------------------------------------------------------------------------------------
     Multipole            Electronic (a.u.)      Nuclear  (a.u.)        Total (a.u.)
 ------------------------------------------------------------------------------------

 L = 1.  Multiply by 2.5417464519 to convert [e a0] to [Debye]
 Dipole X            :         95.6608945          -95.7431820           -0.0822875
 Dipole Y            :          5.0231377           -4.9015130            0.1216246
 Dipole Z            :          2.7006654           -2.0597977            0.6408677
 Magnitude           :                                                    0.6574763

 ------------------------------------------------------------------------------------

*** tstop() called on moses-razer at Sun Mar  2 03:07:53 2025
Module time:
	user time   =      97.95 seconds =       1.63 minutes
	system time =       1.29 seconds =       0.02 minutes
	total time  =         99 seconds =       1.65 minutes
Total time:
	user time   =     260.94 seconds =       4.35 minutes
	system time =       5.19 seconds =       0.09 minutes
	total time  =        266 seconds =       4.43 minutes

  //>>>>>>>>>>>>>>>>>>>>>>>>>>>>>>>>>>>//
  //            Monomer B HF           //
  //<<<<<<<<<<<<<<<<<<<<<<<<<<<<<<<<<<<//

   => Libint2 <=

    Primary   basis highest AM E, G, H:  5, 4, 3
    Auxiliary basis highest AM E, G, H:  6, 5, 4
    Onebody   basis highest AM E, G, H:  6, 5, 4
    Solid Harmonics ordering:            gaussian

*** tstart() called on moses-razer
*** at Sun Mar  2 03:07:53 2025

   => Loading Basis Set <=

    Name: AUG-CC-PVTZ
    Role: ORBITAL
    Keyword: BASIS
    atoms 1-2, 10-11 entry C          line   239 file /home/kchung25/anaconda3/envs/p415env/share/psi4/basis/aug-cc-pvtz.gbs 
    atoms 3, 12      entry O          line   331 file /home/kchung25/anaconda3/envs/p415env/share/psi4/basis/aug-cc-pvtz.gbs 
    atoms 4-9, 13-18 entry H          line    40 file /home/kchung25/anaconda3/envs/p415env/share/psi4/basis/aug-cc-pvtz.gbs 


         ---------------------------------------------------------
                                   SCF
               by Justin Turney, Rob Parrish, Andy Simmonett
                          and Daniel G. A. Smith
                              RHF Reference
                        1 Threads,   9536 MiB Core
         ---------------------------------------------------------

  ==> Geometry <==

    Molecular point group: c1
    Full point group: C1

    Geometry (in Angstrom), charge = 0, multiplicity = 1:

       Center              X                  Y                   Z               Mass       
    ------------   -----------------  -----------------  -----------------  -----------------
      Gh(C)          -2.030209000000     0.997443000000    -0.592376000000    12.000000000000
      Gh(C)          -1.989538000000    -0.031828000000     0.501206000000    12.000000000000
      Gh(O)          -1.814960000000    -1.297402000000    -0.098206000000    15.994914619570
      Gh(H)          -1.828193000000    -1.971728000000     0.583684000000     1.007825032230
      Gh(H)          -2.150918000000     1.999901000000    -0.178206000000     1.007825032230
      Gh(H)          -2.860130000000     0.800002000000    -1.272927000000     1.007825032230
      Gh(H)          -1.104947000000     0.974569000000    -1.172596000000     1.007825032230
      Gh(H)          -2.918904000000     0.000104000000     1.087134000000     1.007825032230
      Gh(H)          -1.163856000000     0.188909000000     1.195581000000     1.007825032230
         C            1.633417000000     1.259863000000     0.300772000000    12.000000000000
         C            1.550833000000    -0.238458000000     0.213553000000    12.000000000000
         O            2.729829000000    -0.701850000000    -0.406992000000    15.994914619570
         H            2.645768000000    -1.642561000000    -0.571650000000     1.007825032230
         H            0.748347000000     1.670689000000     0.791741000000     1.007825032230
         H            1.707554000000     1.695977000000    -0.697447000000     1.007825032230
         H            2.515552000000     1.563226000000     0.867642000000     1.007825032230
         H            0.658644000000    -0.540506000000    -0.353616000000     1.007825032230
         H            1.445112000000    -0.666676000000     1.223317000000     1.007825032230

  Running in c1 symmetry.

  Rotational constants: A =      0.15434  B =      0.04234  C =      0.03630 [cm^-1]
  Rotational constants: A =   4627.09127  B =   1269.29003  C =   1088.22822 [MHz]
  Nuclear repulsion =   82.261516005731224

  Charge       = 0
  Multiplicity = 1
  Electrons    = 26
  Nalpha       = 13
  Nbeta        = 13

  ==> Algorithm <==

  SCF Algorithm Type is DF.
  DIIS enabled.
  MOM disabled.
  Fractional occupation disabled.
  Guess Type is SAD.
  Energy threshold   = 1.00e-08
  Density threshold  = 1.00e-08
  Integral threshold = 1.00e-12

  ==> Primary Basis <==

  Basis Set: AUG-CC-PVTZ
    Blend: AUG-CC-PVTZ
    Number of shells: 192
    Number of basis functions: 552
    Number of Cartesian functions: 630
    Spherical Harmonics?: true
    Max angular momentum: 3

   => Loading Basis Set <=

    Name: (AUG-CC-PVTZ AUX)
    Role: JKFIT
    Keyword: DF_BASIS_SCF
    atoms 1-2, 10-11 entry C          line   162 file /home/kchung25/anaconda3/envs/p415env/share/psi4/basis/aug-cc-pvtz-jkfit.gbs 
    atoms 3, 12      entry O          line   286 file /home/kchung25/anaconda3/envs/p415env/share/psi4/basis/aug-cc-pvtz-jkfit.gbs 
    atoms 4-9, 13-18 entry H          line    70 file /home/kchung25/anaconda3/envs/p415env/share/psi4/basis/aug-cc-pvtz-jkfit.gbs 

  ==> Integral Setup <==

  ==> DiskDFJK: Density-Fitted J/K Matrices <==

    J tasked:                  Yes
    K tasked:                  Yes
    wK tasked:                  No
    OpenMP threads:              1
    Integrals threads:           1
    Memory [MiB]:             7152
    Algorithm:                Core
    Integral Cache:           LOAD
    Schwarz Cutoff:          1E-12
    Fitting Condition:       1E-10

   => Auxiliary Basis Set <=

  Basis Set: (AUG-CC-PVTZ AUX)
    Blend: AUG-CC-PVTZ-JKFIT
    Number of shells: 348
    Number of basis functions: 1176
    Number of Cartesian functions: 1446
    Spherical Harmonics?: true
    Max angular momentum: 4

  Minimum eigenvalue in the overlap matrix is 6.7505224224E-06.
  Reciprocal condition number of the overlap matrix is 3.5106698771E-07.
    Using symmetric orthogonalization.

  ==> Pre-Iterations <==

  SCF Guess: Superposition of Atomic Densities via on-the-fly atomic UHF (no occupation information).

   -------------------------
    Irrep   Nso     Nmo    
   -------------------------
     A        552     552 
   -------------------------
    Total     552     552
   -------------------------

  ==> Iterations <==

                           Total Energy        Delta E     RMS |[F,P]|

   @DF-RHF iter SAD:  -153.44983436359752   -1.53450e+02   0.00000e+00 
   @DF-RHF iter   1:  -153.99862377964945   -5.48789e-01   9.60591e-04 ADIIS/DIIS
   @DF-RHF iter   2:  -154.11072243212544   -1.12099e-01   5.34860e-04 ADIIS/DIIS
   @DF-RHF iter   3:  -154.14372960398279   -3.30072e-02   8.43752e-05 DIIS
   @DF-RHF iter   4:  -154.14532635864572   -1.59675e-03   3.23099e-05 DIIS
   @DF-RHF iter   5:  -154.14551002297515   -1.83664e-04   5.76701e-06 DIIS
   @DF-RHF iter   6:  -154.14551962618594   -9.60321e-06   1.27522e-06 DIIS
   @DF-RHF iter   7:  -154.14552018097135   -5.54785e-07   3.91301e-07 DIIS
   @DF-RHF iter   8:  -154.14552022450906   -4.35377e-08   1.04801e-07 DIIS
   @DF-RHF iter   9:  -154.14552022867065   -4.16159e-09   2.52268e-08 DIIS
   @DF-RHF iter  10:  -154.14552022893218   -2.61537e-10   4.80321e-09 DIIS
  Energy and wave function converged.


  ==> Post-Iterations <==

    Orbital Energies [Eh]
    ---------------------

    Doubly Occupied:                                                      

       1A    -20.556062     2A    -11.273972     3A    -11.210881  
       4A     -1.362529     5A     -1.013709     6A     -0.833184  
       7A     -0.703955     8A     -0.644965     9A     -0.574177  
      10A     -0.533680    11A     -0.524085    12A     -0.489368  
      13A     -0.439785  

    Virtual:                                                              

      14A      0.019801    15A      0.032448    16A      0.035361  
      17A      0.037334    18A      0.052416    19A      0.054685  
      20A      0.055722    21A      0.059833    22A      0.062440  
      23A      0.078584    24A      0.081999    25A      0.087078  
      26A      0.091812    27A      0.109315    28A      0.110460  
      29A      0.116283    30A      0.122683    31A      0.123474  
      32A      0.129258    33A      0.140182    34A      0.142133  
      35A      0.151024    36A      0.157960    37A      0.161143  
      38A      0.165565    39A      0.166174    40A      0.179023  
      41A      0.187162    42A      0.193874    43A      0.201083  
      44A      0.206890    45A      0.211884    46A      0.217793  
      47A      0.237350    48A      0.242133    49A      0.254107  
      50A      0.256405    51A      0.268707    52A      0.275895  
      53A      0.279486    54A      0.285073    55A      0.291397  
      56A      0.294737    57A      0.306646    58A      0.311196  
      59A      0.317884    60A      0.325589    61A      0.328156  
      62A      0.337936    63A      0.340653    64A      0.341404  
      65A      0.345735    66A      0.352820    67A      0.354021  
      68A      0.366059    69A      0.370181    70A      0.377492  
      71A      0.380917    72A      0.384445    73A      0.386324  
      74A      0.390425    75A      0.396871    76A      0.412322  
      77A      0.418426    78A      0.421475    79A      0.431128  
      80A      0.434723    81A      0.437815    82A      0.445541  
      83A      0.449606    84A      0.452987    85A      0.461315  
      86A      0.464564    87A      0.469206    88A      0.482243  
      89A      0.483750    90A      0.491742    91A      0.496504  
      92A      0.500903    93A      0.506723    94A      0.514032  
      95A      0.514361    96A      0.527065    97A      0.531081  
      98A      0.542722    99A      0.549453   100A      0.556033  
     101A      0.560397   102A      0.562390   103A      0.571596  
     104A      0.577876   105A      0.592394   106A      0.593456  
     107A      0.596552   108A      0.612042   109A      0.614250  
     110A      0.626458   111A      0.638020   112A      0.644182  
     113A      0.652541   114A      0.656935   115A      0.661398  
     116A      0.670297   117A      0.675019   118A      0.687487  
     119A      0.688922   120A      0.702131   121A      0.720804  
     122A      0.730462   123A      0.733036   124A      0.738397  
     125A      0.748465   126A      0.756765   127A      0.769643  
     128A      0.782007   129A      0.794917   130A      0.807486  
     131A      0.816168   132A      0.819670   133A      0.837363  
     134A      0.846947   135A      0.861355   136A      0.863304  
     137A      0.879853   138A      0.884137   139A      0.891540  
     140A      0.900272   141A      0.910495   142A      0.914268  
     143A      0.917988   144A      0.931910   145A      0.934690  
     146A      0.949899   147A      0.952753   148A      0.964842  
     149A      0.969816   150A      0.986768   151A      0.996116  
     152A      1.000644   153A      1.003347   154A      1.011689  
     155A      1.014937   156A      1.018045   157A      1.025059  
     158A      1.027495   159A      1.033432   160A      1.051146  
     161A      1.058428   162A      1.064635   163A      1.077333  
     164A      1.077865   165A      1.083789   166A      1.088085  
     167A      1.104129   168A      1.109793   169A      1.110974  
     170A      1.119784   171A      1.124762   172A      1.134605  
     173A      1.135696   174A      1.148308   175A      1.154034  
     176A      1.160239   177A      1.164707   178A      1.168732  
     179A      1.174402   180A      1.191393   181A      1.193037  
     182A      1.201960   183A      1.213064   184A      1.221281  
     185A      1.225243   186A      1.236579   187A      1.242410  
     188A      1.247722   189A      1.258241   190A      1.267446  
     191A      1.278232   192A      1.278647   193A      1.284649  
     194A      1.294206   195A      1.300753   196A      1.307732  
     197A      1.311557   198A      1.317081   199A      1.331692  
     200A      1.352332   201A      1.353848   202A      1.362920  
     203A      1.370018   204A      1.379727   205A      1.382759  
     206A      1.401109   207A      1.413859   208A      1.420194  
     209A      1.430268   210A      1.433688   211A      1.444484  
     212A      1.448195   213A      1.470504   214A      1.479511  
     215A      1.485871   216A      1.495756   217A      1.505895  
     218A      1.521766   219A      1.525163   220A      1.536184  
     221A      1.544539   222A      1.552967   223A      1.562768  
     224A      1.570986   225A      1.582446   226A      1.583752  
     227A      1.594240   228A      1.610940   229A      1.622623  
     230A      1.632754   231A      1.646774   232A      1.649011  
     233A      1.659671   234A      1.674773   235A      1.690566  
     236A      1.696216   237A      1.710467   238A      1.718773  
     239A      1.728993   240A      1.741703   241A      1.747655  
     242A      1.754644   243A      1.759007   244A      1.779023  
     245A      1.792031   246A      1.794777   247A      1.807053  
     248A      1.811501   249A      1.832930   250A      1.839567  
     251A      1.847147   252A      1.854299   253A      1.870675  
     254A      1.877948   255A      1.899612   256A      1.911272  
     257A      1.926479   258A      1.940619   259A      1.951219  
     260A      1.957962   261A      1.963861   262A      1.981682  
     263A      1.991484   264A      1.998285   265A      2.014680  
     266A      2.020572   267A      2.024411   268A      2.040442  
     269A      2.073954   270A      2.080582   271A      2.082789  
     272A      2.097167   273A      2.112431   274A      2.124128  
     275A      2.132181   276A      2.136743   277A      2.148299  
     278A      2.161504   279A      2.165151   280A      2.195540  
     281A      2.205074   282A      2.207732   283A      2.218594  
     284A      2.250337   285A      2.255380   286A      2.271106  
     287A      2.272164   288A      2.280721   289A      2.294734  
     290A      2.305352   291A      2.321561   292A      2.356749  
     293A      2.358429   294A      2.375301   295A      2.392117  
     296A      2.425840   297A      2.450055   298A      2.459760  
     299A      2.474831   300A      2.491348   301A      2.496922  
     302A      2.510322   303A      2.550671   304A      2.561583  
     305A      2.607599   306A      2.614142   307A      2.625458  
     308A      2.638990   309A      2.656059   310A      2.675014  
     311A      2.704011   312A      2.719611   313A      2.728213  
     314A      2.732579   315A      2.761962   316A      2.798582  
     317A      2.814015   318A      2.817929   319A      2.839735  
     320A      2.875320   321A      2.891770   322A      2.897336  
     323A      2.934634   324A      2.949888   325A      2.977895  
     326A      3.010159   327A      3.018674   328A      3.038517  
     329A      3.048850   330A      3.106014   331A      3.136765  
     332A      3.140974   333A      3.167514   334A      3.204280  
     335A      3.218357   336A      3.302582   337A      3.314464  
     338A      3.340828   339A      3.370510   340A      3.402339  
     341A      3.475308   342A      3.480849   343A      3.511853  
     344A      3.518042   345A      3.547602   346A      3.561324  
     347A      3.579631   348A      3.594527   349A      3.623859  
     350A      3.645572   351A      3.661059   352A      3.672894  
     353A      3.708304   354A      3.738482   355A      3.750187  
     356A      3.775795   357A      3.805603   358A      3.839647  
     359A      3.856571   360A      3.865406   361A      3.873878  
     362A      3.905767   363A      3.915404   364A      3.983201  
     365A      3.991469   366A      3.994274   367A      4.021592  
     368A      4.037646   369A      4.052741   370A      4.090373  
     371A      4.095450   372A      4.110075   373A      4.120254  
     374A      4.152349   375A      4.163932   376A      4.179503  
     377A      4.185860   378A      4.200723   379A      4.203598  
     380A      4.212287   381A      4.221927   382A      4.242758  
     383A      4.275419   384A      4.310085   385A      4.320838  
     386A      4.330739   387A      4.342045   388A      4.351817  
     389A      4.359691   390A      4.381343   391A      4.410697  
     392A      4.426959   393A      4.438941   394A      4.460634  
     395A      4.496547   396A      4.523477   397A      4.524669  
     398A      4.528267   399A      4.543949   400A      4.557538  
     401A      4.578071   402A      4.607183   403A      4.622803  
     404A      4.635088   405A      4.642431   406A      4.663135  
     407A      4.677796   408A      4.687673   409A      4.711651  
     410A      4.718241   411A      4.730628   412A      4.743630  
     413A      4.749286   414A      4.792839   415A      4.798096  
     416A      4.821427   417A      4.831984   418A      4.849709  
     419A      4.883900   420A      4.895574   421A      4.904233  
     422A      4.919575   423A      4.923594   424A      4.946380  
     425A      4.957271   426A      4.967039   427A      4.984851  
     428A      4.991471   429A      5.016134   430A      5.025167  
     431A      5.061670   432A      5.074459   433A      5.082835  
     434A      5.092330   435A      5.101151   436A      5.126228  
     437A      5.143560   438A      5.166427   439A      5.185461  
     440A      5.210266   441A      5.219306   442A      5.238799  
     443A      5.251923   444A      5.275259   445A      5.307028  
     446A      5.336152   447A      5.360533   448A      5.362794  
     449A      5.369901   450A      5.408536   451A      5.430844  
     452A      5.443425   453A      5.453673   454A      5.463869  
     455A      5.490801   456A      5.512423   457A      5.521120  
     458A      5.532135   459A      5.543749   460A      5.559921  
     461A      5.583374   462A      5.604790   463A      5.614052  
     464A      5.621619   465A      5.641797   466A      5.661915  
     467A      5.705162   468A      5.715598   469A      5.740437  
     470A      5.767350   471A      5.778974   472A      5.801178  
     473A      5.833429   474A      5.845069   475A      5.871718  
     476A      5.908800   477A      5.951079   478A      5.992640  
     479A      6.023050   480A      6.052839   481A      6.073878  
     482A      6.083896   483A      6.115978   484A      6.143505  
     485A      6.170767   486A      6.207181   487A      6.216919  
     488A      6.237081   489A      6.254318   490A      6.282265  
     491A      6.296933   492A      6.319721   493A      6.471201  
     494A      6.476204   495A      6.566457   496A      6.731430  
     497A      6.739240   498A      6.833931   499A      6.838811  
     500A      6.891661   501A      6.906195   502A      6.925553  
     503A      6.944775   504A      6.959957   505A      7.042573  
     506A      7.124966   507A      7.141632   508A      7.157884  
     509A      7.214972   510A      7.317239   511A      7.369966  
     512A      7.375816   513A      7.514708   514A      7.548953  
     515A      7.636304   516A      7.800153   517A      7.831464  
     518A      7.843610   519A      7.853594   520A      7.879837  
     521A      7.901712   522A      7.912465   523A      7.971266  
     524A      8.006649   525A      8.139408   526A      8.185352  
     527A      8.215922   528A      8.274161   529A      8.332585  
     530A      8.381101   531A      8.436385   532A      8.599577  
     533A      8.646488   534A      8.904972   535A      9.077289  
     536A     10.016683   537A     10.127463   538A     10.370023  
     539A     10.405712   540A     10.452743   541A     10.818140  
     542A     11.086164   543A     12.041547   544A     12.444913  
     545A     13.300815   546A     14.140092   547A     16.061512  
     548A     18.153084   549A     18.790427   550A     53.317728  
     551A     54.651384   552A     66.908734  

    Final Occupation by Irrep:
              A 
    DOCC [    13 ]
    NA   [    13 ]
    NB   [    13 ]

  @DF-RHF Final Energy:  -154.14552022893218

   => Energetics <=

    Nuclear Repulsion Energy =             82.2615160057312238
    One-Electron Energy =                -372.4933676837811163
    Two-Electron Energy =                 136.0863314491177221
    Total Energy =                       -154.1455202289321846

Computation Completed


Properties will be evaluated at   0.000000,   0.000000,   0.000000 [a0]

Properties computed using the SCF density matrix


 Multipole Moments:

 ------------------------------------------------------------------------------------
     Multipole            Electronic (a.u.)      Nuclear  (a.u.)        Total (a.u.)
 ------------------------------------------------------------------------------------

 L = 1.  Multiply by 2.5417464519 to convert [e a0] to [Debye]
 Dipole X            :        -96.2741204           95.7431801           -0.5309402
 Dipole Y            :         -5.2615644            4.9015319           -0.3600324
 Dipole Z            :         -1.9118424            2.0598034            0.1479609
 Magnitude           :                                                    0.6583414

 ------------------------------------------------------------------------------------

*** tstop() called on moses-razer at Sun Mar  2 03:09:51 2025
Module time:
	user time   =     116.11 seconds =       1.94 minutes
	system time =       1.61 seconds =       0.03 minutes
	total time  =        118 seconds =       1.97 minutes
Total time:
	user time   =     377.06 seconds =       6.28 minutes
	system time =       6.80 seconds =       0.11 minutes
	total time  =        384 seconds =       6.40 minutes
  Constructing Basis Sets for SAPT...

   => Loading Basis Set <=

    Name: (AUG-CC-PVTZ AUX)
    Role: RIFIT
    Keyword: DF_BASIS_SAPT
    atoms 1-2, 10-11 entry C          line   148 file /home/kchung25/anaconda3/envs/p415env/share/psi4/basis/aug-cc-pvtz-ri.gbs 
    atoms 3, 12      entry O          line   264 file /home/kchung25/anaconda3/envs/p415env/share/psi4/basis/aug-cc-pvtz-ri.gbs 
    atoms 4-9, 13-18 entry H          line    30 file /home/kchung25/anaconda3/envs/p415env/share/psi4/basis/aug-cc-pvtz-ri.gbs 

   => Loading Basis Set <=

    Name: (AUG-CC-PVTZ AUX)
    Role: JKFIT
    Keyword: DF_BASIS_ELST
    atoms 1-2, 10-11 entry C          line   162 file /home/kchung25/anaconda3/envs/p415env/share/psi4/basis/aug-cc-pvtz-jkfit.gbs 
    atoms 3, 12      entry O          line   286 file /home/kchung25/anaconda3/envs/p415env/share/psi4/basis/aug-cc-pvtz-jkfit.gbs 
    atoms 4-9, 13-18 entry H          line    70 file /home/kchung25/anaconda3/envs/p415env/share/psi4/basis/aug-cc-pvtz-jkfit.gbs 


  //>>>>>>>>>>>>>>>>>>>>>>>>>>>>>>>>>>>//
  //               SAPT2+              //
  //<<<<<<<<<<<<<<<<<<<<<<<<<<<<<<<<<<<//


*** tstart() called on moses-razer
*** at Sun Mar  2 03:09:51 2025

        SAPT2+  
    Ed Hohenstein
     6 June 2009

      Orbital Information
  --------------------------
    NSO        =       552
    NMO        =       552
    NRI        =      1188
    NOCC A     =        13
    NOCC B     =        13
    FOCC A     =         0
    FOCC B     =         0
    NVIR A     =       539
    NVIR B     =       539

    Estimated memory usage: 3939.5 MB

    Natural Orbital Cutoff:   1.000E-06
    Disp(T3) Truncation:            Yes
    CCD (vv|vv) Truncation:         Yes
    MBPT T2 Truncation:             Yes

    Monomer A: 306 virtual orbitals dropped
    Monomer B: 307 virtual orbitals dropped

    Elst10,r            =    -0.002513694156 [Eh]
    Exch10 (S^2)        =     0.005968261121 [Eh]
    Exch10              =     0.005983953216 [Eh]
    Ind20,r (A<-B)      =    -0.000440841956 [Eh]
    Ind20,r (B<-A)      =    -0.001025490567 [Eh]
    Ind20,r             =    -0.001466332523 [Eh]
    Exch-Ind20,r (A<-B) =     0.000338870526 [Eh]
    Exch-Ind20,r (B<-A) =     0.000831681087 [Eh]
    Exch-Ind20,r        =     0.001170551612 [Eh]
    Disp20              =    -0.006692623798 [Eh]
    Disp20 (NO)         =    -0.005978347450 [Eh]
    Exch-Disp20         =     0.000684510438 [Eh]
    Elst12,r            =    -0.000426116613 [Eh]
    Exch11              =     0.000121964386 [Eh]
    Exch12              =     0.000693351548 [Eh]
    Ind22               =    -0.000215298668 [Eh]
    Disp21              =     0.000299367961 [Eh]
    Disp22 (SDQ)        =     0.000204391280 [Eh]

    (i =   1 of  13)        404 seconds
    (i =   2 of  13)        859 seconds
    (i =   3 of  13)       1316 seconds
    (i =   4 of  13)       1759 seconds
    (i =   5 of  13)       2169 seconds
    (i =   6 of  13)       2412 seconds
    (i =   7 of  13)       2695 seconds
    (i =   8 of  13)       3016 seconds
    (i =   9 of  13)       3367 seconds
    (i =  10 of  13)       3762 seconds
    (i =  11 of  13)       3999 seconds
    (i =  12 of  13)       4234 seconds
    (i =  13 of  13)       4492 seconds

    Disp220 (T)         =    -0.000476559847 [Eh]

    (i =   1 of  13)        252 seconds
    (i =   2 of  13)        492 seconds
    (i =   3 of  13)        732 seconds
    (i =   4 of  13)        972 seconds
    (i =   5 of  13)       1211 seconds
    (i =   6 of  13)       1451 seconds
    (i =   7 of  13)       1690 seconds
    (i =   8 of  13)       1929 seconds
    (i =   9 of  13)       2167 seconds
    (i =  10 of  13)       2401 seconds
    (i =  11 of  13)       2686 seconds
    (i =  12 of  13)       2933 seconds
    (i =  13 of  13)       3182 seconds

    Disp202 (T)         =    -0.000444664878 [Eh]

    Disp22 (T)          =    -0.000921224725 [Eh]

    Est. Disp220 (T)    =    -0.000533497894 [Eh]
    Est. Disp202 (T)    =    -0.000497792202 [Eh]

    Est. Disp22 (T)     =    -0.001031290096 [Eh]

    SAPT Results 
  --------------------------------------------------------------------------------------------------------
    Electrostatics                 -2.93981077 [mEh]      -1.84475911 [kcal/mol]      -7.71847211 [kJ/mol]
      Elst10,r                     -2.51369416 [mEh]      -1.57736690 [kcal/mol]      -6.59970310 [kJ/mol]
      Elst12,r                     -0.42611661 [mEh]      -0.26739221 [kcal/mol]      -1.11876901 [kJ/mol]

    Exchange                        6.79926915 [mEh]       4.26660581 [kcal/mol]      17.85147869 [kJ/mol]
      Exch10                        5.98395322 [mEh]       3.75498733 [kcal/mol]      15.71086700 [kJ/mol]
      Exch10(S^2)                   5.96826112 [mEh]       3.74514040 [kcal/mol]      15.66966742 [kJ/mol]
      Exch11(S^2)                   0.12196439 [mEh]       0.07653381 [kcal/mol]       0.32021745 [kJ/mol]
      Exch12(S^2)                   0.69335155 [mEh]       0.43508467 [kcal/mol]       1.82039424 [kJ/mol]

    Induction                      -0.77738416 [mEh]      -0.48781593 [kcal/mol]      -2.04102184 [kJ/mol]
      Ind20,r                      -1.46633252 [mEh]      -0.92013755 [kcal/mol]      -3.84985551 [kJ/mol]
      Ind22                        -0.21529867 [mEh]      -0.13510195 [kcal/mol]      -0.56526658 [kJ/mol]
      Exch-Ind20,r                  1.17055161 [mEh]       0.73453223 [kcal/mol]       3.07328283 [kJ/mol]
      Exch-Ind22                    0.17186975 [mEh]       0.10784990 [kcal/mol]       0.45124396 [kJ/mol]
      delta HF,r (2)               -0.43817433 [mEh]      -0.27495855 [kcal/mol]      -1.15042655 [kJ/mol]

    Dispersion                     -6.53564422 [mEh]      -4.10117866 [kcal/mol]     -17.15933152 [kJ/mol]
      Disp20                       -6.69262380 [mEh]      -4.19968484 [kcal/mol]     -17.57148136 [kJ/mol]
      Disp21                        0.29936796 [mEh]       0.18785623 [kcal/mol]       0.78599047 [kJ/mol]
      Disp22 (SDQ)                  0.20439128 [mEh]       0.12825746 [kcal/mol]       0.53662923 [kJ/mol]
      Disp22 (T)                   -0.92122472 [mEh]      -0.57807724 [kcal/mol]      -2.41867518 [kJ/mol]
      Est. Disp22 (T)              -1.03129010 [mEh]      -0.64714431 [kcal/mol]      -2.70765177 [kJ/mol]
      Exch-Disp20                   0.68451044 [mEh]       0.42953678 [kcal/mol]       1.79718191 [kJ/mol]

  Total HF                          2.73630381 [mEh]       1.71705657 [kcal/mol]       7.18416468 [kJ/mol]
  Total SAPT0                      -3.27180954 [mEh]      -2.05309149 [kcal/mol]      -8.59013478 [kJ/mol]
  Total SAPT2                      -2.92603914 [mEh]      -1.83611728 [kcal/mol]      -7.68231471 [kJ/mol]
  Total SAPT2+                     -3.45357000 [mEh]      -2.16714789 [kcal/mol]      -9.06734678 [kJ/mol]

  Special recipe for scaled SAPT0 (see Manual):
    Electrostatics sSAPT0          -2.51369416 [mEh]      -1.57736690 [kcal/mol]      -6.59970310 [kJ/mol]
    Exchange sSAPT0                 5.98395322 [mEh]       3.75498733 [kcal/mol]      15.71086700 [kJ/mol]
    Induction sSAPT0               -0.72469790 [mEh]      -0.45475480 [kcal/mol]      -1.90269408 [kJ/mol]
    Dispersion sSAPT0              -6.00269989 [mEh]      -3.76675105 [kcal/mol]     -15.76008639 [kJ/mol]
  Total sSAPT0                     -3.25713873 [mEh]      -2.04388541 [kcal/mol]      -8.55161656 [kJ/mol]
  --------------------------------------------------------------------------------------------------------

*** tstop() called on moses-razer at Sun Mar  2 05:52:08 2025
Module time:
	user time   =    9588.68 seconds =     159.81 minutes
	system time =     128.89 seconds =       2.15 minutes
	total time  =       9737 seconds =     162.28 minutes
Total time:
	user time   =    9966.06 seconds =     166.10 minutes
	system time =     135.69 seconds =       2.26 minutes
	total time  =      10121 seconds =     168.68 minutes

    Psi4 stopped on: Sunday, 02 March 2025 05:52AM
    Psi4 wall time for execution: 2:48:42.53

*** Psi4 exiting successfully. Buy a developer a beer!
