
    -----------------------------------------------------------------------
          Psi4: An Open-Source Ab Initio Electronic Structure Package
                               Psi4 1.9 release

                         Git: Rev {} zzzzzzz 


    D. G. A. Smith, L. A. Burns, A. C. Simmonett, R. M. Parrish,
    M. C. Schieber, R. Galvelis, P. Kraus, H. Kruse, R. Di Remigio,
    A. Alenaizan, A. M. James, S. Lehtola, J. P. Misiewicz, M. Scheurer,
    R. A. Shaw, J. B. Schriber, Y. Xie, Z. L. Glick, D. A. Sirianni,
    J. S. O'Brien, J. M. Waldrop, A. Kumar, E. G. Hohenstein,
    B. P. Pritchard, B. R. Brooks, H. F. Schaefer III, A. Yu. Sokolov,
    K. Patkowski, A. E. DePrince III, U. Bozkaya, R. A. King,
    F. A. Evangelista, J. M. Turney, T. D. Crawford, C. D. Sherrill,
    J. Chem. Phys. 152(18) 184108 (2020). https://doi.org/10.1063/5.0006002

                            Additional Code Authors
    E. T. Seidl, C. L. Janssen, E. F. Valeev, M. L. Leininger,
    J. F. Gonthier, R. M. Richard, H. R. McAlexander, M. Saitow, X. Wang,
    P. Verma, M. H. Lechner, A. Jiang, S. Behnle, A. G. Heide,
    M. F. Herbst, and D. L. Poole

             Previous Authors, Complete List of Code Contributors,
                       and Citations for Specific Modules
    https://github.com/psi4/psi4/blob/master/codemeta.json
    https://github.com/psi4/psi4/graphs/contributors
    http://psicode.org/psi4manual/master/introduction.html#citing-psifour

    -----------------------------------------------------------------------


    Psi4 started on: Saturday, 01 March 2025 06:58PM

    Process ID: 197163
    Host:       moses-razer
    PSIDATADIR: /home/kchung25/anaconda3/envs/psi4_19/share/psi4
    Memory:     500.0 MiB
    Threads:    1
    
  ==> Input File <==

--------------------------------------------------------------------------
MEMORY 10 GB

molecule dimer {
0 1
C   -1.812049  -1.313670  -0.315971
C   -1.974663  -0.127387   0.591559
O   -2.245825   0.998052  -0.214631
H   -2.351964   1.768926   0.346257
H   -1.584770  -2.214270   0.257177
H   -0.998441  -1.140479  -1.024415
H   -2.724973  -1.486699  -0.888315
H   -1.056825   0.024328   1.180454
H   -2.790662  -0.304727   1.306389
--
0 1
C    1.280549   1.136886  -0.192903
C    1.743025  -0.292312  -0.215131
O    3.051475  -0.339538   0.307722
H    3.364688  -1.245527   0.287422
H    0.264456   1.225750  -0.585081
H    1.944384   1.760507  -0.794390
H    1.294339   1.521489   0.829710
H    1.714899  -0.680289  -1.244464
H    1.058495  -0.918225   0.379202

units ang
no_reorient
no_com
symmetry c1
}

set {
basis        aug-cc-pVTZ
scf_type     df
}

energy("sapt2+")
--------------------------------------------------------------------------

  Memory set to   9.313 GiB by Python driver.

Scratch directory: /scratch/
   => Loading Basis Set <=

    Name: AUG-CC-PVTZ
    Role: ORBITAL
    Keyword: BASIS
    atoms 1-2, 10-11 entry C          line   239 file /home/kchung25/anaconda3/envs/p415env/share/psi4/basis/aug-cc-pvtz.gbs 
    atoms 3, 12      entry O          line   331 file /home/kchung25/anaconda3/envs/p415env/share/psi4/basis/aug-cc-pvtz.gbs 
    atoms 4-9, 13-18 entry H          line    40 file /home/kchung25/anaconda3/envs/p415env/share/psi4/basis/aug-cc-pvtz.gbs 

   => Loading Basis Set <=

    Name: AUG-CC-PVTZ
    Role: ORBITAL
    Keyword: BASIS
    atoms 1-2, 10-11 entry C          line   239 file /home/kchung25/anaconda3/envs/p415env/share/psi4/basis/aug-cc-pvtz.gbs 
    atoms 3, 12      entry O          line   331 file /home/kchung25/anaconda3/envs/p415env/share/psi4/basis/aug-cc-pvtz.gbs 
    atoms 4-9, 13-18 entry H          line    40 file /home/kchung25/anaconda3/envs/p415env/share/psi4/basis/aug-cc-pvtz.gbs 


  //>>>>>>>>>>>>>>>>>>>>>>>>>>>>>>>>>>>//
  //              Dimer HF             //
  //<<<<<<<<<<<<<<<<<<<<<<<<<<<<<<<<<<<//

   => Libint2 <=

    Primary   basis highest AM E, G, H:  5, 4, 3
    Auxiliary basis highest AM E, G, H:  6, 5, 4
    Onebody   basis highest AM E, G, H:  6, 5, 4
    Solid Harmonics ordering:            gaussian

*** tstart() called on moses-razer
*** at Sat Mar  1 18:58:10 2025

   => Loading Basis Set <=

    Name: AUG-CC-PVTZ
    Role: ORBITAL
    Keyword: BASIS
    atoms 1-2, 10-11 entry C          line   239 file /home/kchung25/anaconda3/envs/p415env/share/psi4/basis/aug-cc-pvtz.gbs 
    atoms 3, 12      entry O          line   331 file /home/kchung25/anaconda3/envs/p415env/share/psi4/basis/aug-cc-pvtz.gbs 
    atoms 4-9, 13-18 entry H          line    40 file /home/kchung25/anaconda3/envs/p415env/share/psi4/basis/aug-cc-pvtz.gbs 


         ---------------------------------------------------------
                                   SCF
               by Justin Turney, Rob Parrish, Andy Simmonett
                          and Daniel G. A. Smith
                              RHF Reference
                        1 Threads,   9536 MiB Core
         ---------------------------------------------------------

  ==> Geometry <==

    Molecular point group: c1
    Full point group: C1

    Geometry (in Angstrom), charge = 0, multiplicity = 1:

       Center              X                  Y                   Z               Mass       
    ------------   -----------------  -----------------  -----------------  -----------------
         C           -1.812049000000    -1.313670000000    -0.315971000000    12.000000000000
         C           -1.974663000000    -0.127387000000     0.591559000000    12.000000000000
         O           -2.245825000000     0.998052000000    -0.214631000000    15.994914619570
         H           -2.351964000000     1.768926000000     0.346257000000     1.007825032230
         H           -1.584770000000    -2.214270000000     0.257177000000     1.007825032230
         H           -0.998441000000    -1.140479000000    -1.024415000000     1.007825032230
         H           -2.724973000000    -1.486699000000    -0.888315000000     1.007825032230
         H           -1.056825000000     0.024328000000     1.180454000000     1.007825032230
         H           -2.790662000000    -0.304727000000     1.306389000000     1.007825032230
         C            1.280549000000     1.136886000000    -0.192903000000    12.000000000000
         C            1.743025000000    -0.292312000000    -0.215131000000    12.000000000000
         O            3.051475000000    -0.339538000000     0.307722000000    15.994914619570
         H            3.364688000000    -1.245527000000     0.287422000000     1.007825032230
         H            0.264456000000     1.225750000000    -0.585081000000     1.007825032230
         H            1.944384000000     1.760507000000    -0.794390000000     1.007825032230
         H            1.294339000000     1.521489000000     0.829710000000     1.007825032230
         H            1.714899000000    -0.680289000000    -1.244464000000     1.007825032230
         H            1.058495000000    -0.918225000000     0.379202000000     1.007825032230

  Running in c1 symmetry.

  Rotational constants: A =      0.17940  B =      0.03867  C =      0.03403 [cm^-1]
  Rotational constants: A =   5378.21963  B =   1159.41282  C =   1020.04672 [MHz]
  Nuclear repulsion =  250.504296865641209

  Charge       = 0
  Multiplicity = 1
  Electrons    = 52
  Nalpha       = 26
  Nbeta        = 26

  ==> Algorithm <==

  SCF Algorithm Type is DF.
  DIIS enabled.
  MOM disabled.
  Fractional occupation disabled.
  Guess Type is SAD.
  Energy threshold   = 1.00e-08
  Density threshold  = 1.00e-08
  Integral threshold = 1.00e-12

  ==> Primary Basis <==

  Basis Set: AUG-CC-PVTZ
    Blend: AUG-CC-PVTZ
    Number of shells: 192
    Number of basis functions: 552
    Number of Cartesian functions: 630
    Spherical Harmonics?: true
    Max angular momentum: 3

   => Loading Basis Set <=

    Name: (AUG-CC-PVTZ AUX)
    Role: JKFIT
    Keyword: DF_BASIS_SCF
    atoms 1-2, 10-11 entry C          line   162 file /home/kchung25/anaconda3/envs/p415env/share/psi4/basis/aug-cc-pvtz-jkfit.gbs 
    atoms 3, 12      entry O          line   286 file /home/kchung25/anaconda3/envs/p415env/share/psi4/basis/aug-cc-pvtz-jkfit.gbs 
    atoms 4-9, 13-18 entry H          line    70 file /home/kchung25/anaconda3/envs/p415env/share/psi4/basis/aug-cc-pvtz-jkfit.gbs 

  ==> Integral Setup <==

  ==> DiskDFJK: Density-Fitted J/K Matrices <==

    J tasked:                  Yes
    K tasked:                  Yes
    wK tasked:                  No
    OpenMP threads:              1
    Integrals threads:           1
    Memory [MiB]:             7152
    Algorithm:                Core
    Integral Cache:           SAVE
    Schwarz Cutoff:          1E-12
    Fitting Condition:       1E-10

   => Auxiliary Basis Set <=

  Basis Set: (AUG-CC-PVTZ AUX)
    Blend: AUG-CC-PVTZ-JKFIT
    Number of shells: 348
    Number of basis functions: 1176
    Number of Cartesian functions: 1446
    Spherical Harmonics?: true
    Max angular momentum: 4

  Minimum eigenvalue in the overlap matrix is 6.3856333273E-06.
  Reciprocal condition number of the overlap matrix is 3.3180641702E-07.
    Using symmetric orthogonalization.

  ==> Pre-Iterations <==

  SCF Guess: Superposition of Atomic Densities via on-the-fly atomic UHF (no occupation information).

   -------------------------
    Irrep   Nso     Nmo    
   -------------------------
     A        552     552 
   -------------------------
    Total     552     552
   -------------------------

  ==> Iterations <==

                           Total Energy        Delta E     RMS |[F,P]|

   @DF-RHF iter SAD:  -307.09007475213764   -3.07090e+02   0.00000e+00 
   @DF-RHF iter   1:  -307.99888497241704   -9.08810e-01   1.34177e-03 ADIIS/DIIS
   @DF-RHF iter   2:  -308.22264497543483   -2.23760e-01   7.32660e-04 ADIIS/DIIS
   @DF-RHF iter   3:  -308.28465673015688   -6.20118e-02   1.20004e-04 ADIIS/DIIS
   @DF-RHF iter   4:  -308.28789794676749   -3.24122e-03   4.49462e-05 DIIS
   @DF-RHF iter   5:  -308.28824905538050   -3.51109e-04   8.26964e-06 DIIS
   @DF-RHF iter   6:  -308.28826882507258   -1.97697e-05   1.85530e-06 DIIS
   @DF-RHF iter   7:  -308.28826998746422   -1.16239e-06   5.75520e-07 DIIS
   @DF-RHF iter   8:  -308.28827008062530   -9.31611e-08   1.50833e-07 DIIS
   @DF-RHF iter   9:  -308.28827008917682   -8.55152e-09   3.59274e-08 DIIS
   @DF-RHF iter  10:  -308.28827008970927   -5.32452e-10   7.19780e-09 DIIS
  Energy and wave function converged.


  ==> Post-Iterations <==

    Orbital Energies [Eh]
    ---------------------

    Doubly Occupied:                                                      

       1A    -20.560229     2A    -20.554246     3A    -11.277374  
       4A    -11.271240     5A    -11.215598     6A    -11.204598  
       7A     -1.367205     8A     -1.360838     9A     -1.019997  
      10A     -1.009766    11A     -0.838278    12A     -0.829524  
      13A     -0.708590    14A     -0.703132    15A     -0.654877  
      16A     -0.639197    17A     -0.578977    18A     -0.571837  
      19A     -0.539514    20A     -0.534311    21A     -0.523796  
      22A     -0.519407    23A     -0.493498    24A     -0.485157  
      25A     -0.445501    26A     -0.436714  

    Virtual:                                                              

      27A      0.026683    28A      0.032035    29A      0.038656  
      30A      0.039395    31A      0.052483    32A      0.054775  
      33A      0.057591    34A      0.058308    35A      0.068892  
      36A      0.080644    37A      0.085627    38A      0.089656  
      39A      0.106953    40A      0.112036    41A      0.120424  
      42A      0.121558    43A      0.129931    44A      0.133239  
      45A      0.136188    46A      0.147547    47A      0.156655  
      48A      0.158588    49A      0.160710    50A      0.164887  
      51A      0.170542    52A      0.176534    53A      0.180181  
      54A      0.187340    55A      0.201884    56A      0.208273  
      57A      0.210003    58A      0.224606    59A      0.237448  
      60A      0.239502    61A      0.248184    62A      0.257166  
      63A      0.268885    64A      0.273333    65A      0.278683  
      66A      0.285212    67A      0.291010    68A      0.296806  
      69A      0.301579    70A      0.309187    71A      0.318478  
      72A      0.319629    73A      0.328544    74A      0.330777  
      75A      0.339930    76A      0.344906    77A      0.348290  
      78A      0.354411    79A      0.358383    80A      0.365010  
      81A      0.369965    82A      0.373565    83A      0.380463  
      84A      0.383980    85A      0.393623    86A      0.395394  
      87A      0.396840    88A      0.405727    89A      0.412373  
      90A      0.417174    91A      0.424976    92A      0.429939  
      93A      0.433101    94A      0.442133    95A      0.444928  
      96A      0.452168    97A      0.454599    98A      0.458261  
      99A      0.463438   100A      0.472035   101A      0.479068  
     102A      0.480287   103A      0.485935   104A      0.493403  
     105A      0.496790   106A      0.506888   107A      0.507647  
     108A      0.517185   109A      0.524569   110A      0.525929  
     111A      0.535464   112A      0.539773   113A      0.551887  
     114A      0.558568   115A      0.561426   116A      0.568961  
     117A      0.573884   118A      0.576557   119A      0.582896  
     120A      0.588973   121A      0.590469   122A      0.607133  
     123A      0.611363   124A      0.613373   125A      0.627859  
     126A      0.637323   127A      0.639480   128A      0.648028  
     129A      0.666616   130A      0.676066   131A      0.691053  
     132A      0.697778   133A      0.718953   134A      0.728362  
     135A      0.736953   136A      0.743828   137A      0.749223  
     138A      0.767230   139A      0.778451   140A      0.789610  
     141A      0.802183   142A      0.805355   143A      0.812118  
     144A      0.817382   145A      0.826259   146A      0.838469  
     147A      0.842758   148A      0.849048   149A      0.853941  
     150A      0.860387   151A      0.875099   152A      0.880707  
     153A      0.888530   154A      0.899930   155A      0.906885  
     156A      0.910348   157A      0.919363   158A      0.921330  
     159A      0.926472   160A      0.930257   161A      0.935267  
     162A      0.957086   163A      0.958494   164A      0.966604  
     165A      0.970104   166A      0.977560   167A      0.983138  
     168A      0.998357   169A      1.002641   170A      1.008698  
     171A      1.013532   172A      1.020992   173A      1.027736  
     174A      1.032800   175A      1.034405   176A      1.043897  
     177A      1.050143   178A      1.061889   179A      1.065184  
     180A      1.071406   181A      1.079898   182A      1.086244  
     183A      1.091304   184A      1.100798   185A      1.108976  
     186A      1.118231   187A      1.120162   188A      1.122217  
     189A      1.131845   190A      1.143521   191A      1.146082  
     192A      1.161659   193A      1.164120   194A      1.165266  
     195A      1.173491   196A      1.183999   197A      1.188662  
     198A      1.200647   199A      1.205238   200A      1.210321  
     201A      1.225450   202A      1.226987   203A      1.234121  
     204A      1.248271   205A      1.250871   206A      1.265966  
     207A      1.274575   208A      1.291936   209A      1.298538  
     210A      1.301278   211A      1.322306   212A      1.325338  
     213A      1.332525   214A      1.340591   215A      1.358675  
     216A      1.364796   217A      1.373507   218A      1.381982  
     219A      1.386817   220A      1.387945   221A      1.405523  
     222A      1.419599   223A      1.429307   224A      1.434663  
     225A      1.452045   226A      1.462148   227A      1.470955  
     228A      1.483531   229A      1.487899   230A      1.490010  
     231A      1.506699   232A      1.516023   233A      1.532565  
     234A      1.539590   235A      1.546884   236A      1.553035  
     237A      1.561442   238A      1.576108   239A      1.584296  
     240A      1.596683   241A      1.607391   242A      1.630638  
     243A      1.639871   244A      1.648195   245A      1.654859  
     246A      1.661052   247A      1.667879   248A      1.678720  
     249A      1.687665   250A      1.692677   251A      1.701431  
     252A      1.708484   253A      1.718678   254A      1.730649  
     255A      1.733526   256A      1.741128   257A      1.749428  
     258A      1.761274   259A      1.774858   260A      1.785637  
     261A      1.786672   262A      1.795479   263A      1.796729  
     264A      1.802780   265A      1.820206   266A      1.826209  
     267A      1.844948   268A      1.850110   269A      1.862875  
     270A      1.868376   271A      1.894749   272A      1.901793  
     273A      1.907138   274A      1.924770   275A      1.925822  
     276A      1.946672   277A      1.965297   278A      1.979330  
     279A      1.992176   280A      1.999700   281A      2.013251  
     282A      2.018591   283A      2.022549   284A      2.044421  
     285A      2.057993   286A      2.066896   287A      2.079603  
     288A      2.092469   289A      2.104742   290A      2.108327  
     291A      2.118475   292A      2.123682   293A      2.126387  
     294A      2.154276   295A      2.157385   296A      2.173244  
     297A      2.177123   298A      2.196173   299A      2.212139  
     300A      2.248179   301A      2.249971   302A      2.269847  
     303A      2.274820   304A      2.295438   305A      2.298753  
     306A      2.311650   307A      2.329263   308A      2.372687  
     309A      2.376507   310A      2.404934   311A      2.423024  
     312A      2.430972   313A      2.448383   314A      2.458271  
     315A      2.489880   316A      2.499545   317A      2.514617  
     318A      2.556506   319A      2.569863   320A      2.586379  
     321A      2.600155   322A      2.606383   323A      2.640371  
     324A      2.655711   325A      2.679155   326A      2.721290  
     327A      2.739196   328A      2.775477   329A      2.830869  
     330A      2.857863   331A      2.885226   332A      2.907967  
     333A      2.917815   334A      2.930435   335A      2.961311  
     336A      2.965528   337A      2.970826   338A      2.994066  
     339A      3.005491   340A      3.025139   341A      3.035142  
     342A      3.046776   343A      3.080433   344A      3.112850  
     345A      3.119483   346A      3.149136   347A      3.207842  
     348A      3.260625   349A      3.346912   350A      3.367427  
     351A      3.394235   352A      3.448886   353A      3.464188  
     354A      3.480564   355A      3.497581   356A      3.503145  
     357A      3.520810   358A      3.534088   359A      3.568028  
     360A      3.572643   361A      3.610727   362A      3.617602  
     363A      3.628342   364A      3.645543   365A      3.660733  
     366A      3.676774   367A      3.685999   368A      3.703211  
     369A      3.721303   370A      3.736485   371A      3.760843  
     372A      3.766711   373A      3.791198   374A      3.810158  
     375A      3.820078   376A      3.832660   377A      3.846853  
     378A      3.850146   379A      3.871711   380A      3.883159  
     381A      3.905534   382A      3.920813   383A      3.925376  
     384A      3.946724   385A      3.973798   386A      3.984544  
     387A      3.991068   388A      3.998981   389A      4.016331  
     390A      4.027536   391A      4.036531   392A      4.043074  
     393A      4.052862   394A      4.063929   395A      4.079987  
     396A      4.098185   397A      4.109990   398A      4.112175  
     399A      4.129271   400A      4.141457   401A      4.155021  
     402A      4.166317   403A      4.181336   404A      4.202280  
     405A      4.212599   406A      4.230469   407A      4.241710  
     408A      4.247603   409A      4.264155   410A      4.282667  
     411A      4.314094   412A      4.330547   413A      4.339607  
     414A      4.347257   415A      4.362560   416A      4.385182  
     417A      4.391090   418A      4.409965   419A      4.424516  
     420A      4.433920   421A      4.489625   422A      4.516435  
     423A      4.534106   424A      4.547780   425A      4.554637  
     426A      4.564544   427A      4.579380   428A      4.589503  
     429A      4.606832   430A      4.611018   431A      4.636959  
     432A      4.648072   433A      4.674225   434A      4.697480  
     435A      4.699382   436A      4.714016   437A      4.731304  
     438A      4.749631   439A      4.788048   440A      4.799955  
     441A      4.810445   442A      4.818651   443A      4.847855  
     444A      4.872934   445A      4.885722   446A      4.907118  
     447A      4.925118   448A      4.935347   449A      4.948248  
     450A      4.963077   451A      4.984650   452A      4.997800  
     453A      5.026236   454A      5.050912   455A      5.067806  
     456A      5.082712   457A      5.092310   458A      5.106671  
     459A      5.121742   460A      5.133638   461A      5.150368  
     462A      5.163337   463A      5.172247   464A      5.189635  
     465A      5.204422   466A      5.234567   467A      5.238109  
     468A      5.257667   469A      5.287579   470A      5.316349  
     471A      5.337416   472A      5.350792   473A      5.369972  
     474A      5.381249   475A      5.389607   476A      5.407339  
     477A      5.438746   478A      5.465212   479A      5.479073  
     480A      5.494257   481A      5.507633   482A      5.533602  
     483A      5.558971   484A      5.561431   485A      5.585897  
     486A      5.613292   487A      5.614314   488A      5.634876  
     489A      5.659965   490A      5.699815   491A      5.765046  
     492A      5.773077   493A      5.777596   494A      5.794543  
     495A      5.814114   496A      5.841259   497A      5.857362  
     498A      5.875591   499A      6.028783   500A      6.039339  
     501A      6.076200   502A      6.083996   503A      6.091255  
     504A      6.119231   505A      6.157766   506A      6.177136  
     507A      6.214450   508A      6.254964   509A      6.260268  
     510A      6.291516   511A      6.301718   512A      6.325471  
     513A      6.426322   514A      6.481149   515A      6.715670  
     516A      6.730490   517A      6.748293   518A      6.805984  
     519A      6.817931   520A      6.857834   521A      6.901454  
     522A      6.925562   523A      6.948427   524A      6.955324  
     525A      6.987348   526A      7.003771   527A      7.135849  
     528A      7.195227   529A      7.365348   530A      7.372930  
     531A      7.377107   532A      7.396162   533A      7.520980  
     534A      7.543074   535A      7.547382   536A      7.557787  
     537A      7.627433   538A      7.632570   539A      7.847645  
     540A      7.861177   541A      7.970644   542A      7.985205  
     543A      8.259842   544A      8.290130   545A      8.627133  
     546A      8.639207   547A     16.008539   548A     16.331548  
     549A     18.096027   550A     18.263402   551A     18.562494  
     552A     19.057088  

    Final Occupation by Irrep:
              A 
    DOCC [    26 ]
    NA   [    26 ]
    NB   [    26 ]

  @DF-RHF Final Energy:  -308.28827008970927

   => Energetics <=

    Nuclear Repulsion Energy =            250.5042968656412086
    One-Electron Energy =                -916.8983293109580472
    Two-Electron Energy =                 358.1057623556075669
    Total Energy =                       -308.2882700897092718

Computation Completed


Properties will be evaluated at   0.000000,   0.000000,   0.000000 [a0]

Properties computed using the SCF density matrix


 Multipole Moments:

 ------------------------------------------------------------------------------------
     Multipole            Electronic (a.u.)      Nuclear  (a.u.)        Total (a.u.)
 ------------------------------------------------------------------------------------

 L = 1.  Multiply by 2.5417464519 to convert [e a0] to [Debye]
 Dipole X            :         -0.3794283           -0.0000038           -0.3794321
 Dipole Y            :         -0.4983912           -0.0000038           -0.4983950
 Dipole Z            :          0.4024025           -0.0000038            0.4023987
 Magnitude           :                                                    0.7445072

 ------------------------------------------------------------------------------------

*** tstop() called on moses-razer at Sat Mar  1 19:00:18 2025
Module time:
	user time   =     125.11 seconds =       2.09 minutes
	system time =       2.85 seconds =       0.05 minutes
	total time  =        128 seconds =       2.13 minutes
Total time:
	user time   =     125.11 seconds =       2.09 minutes
	system time =       2.85 seconds =       0.05 minutes
	total time  =        128 seconds =       2.13 minutes

  //>>>>>>>>>>>>>>>>>>>>>>>>>>>>>>>>>>>//
  //            Monomer A HF           //
  //<<<<<<<<<<<<<<<<<<<<<<<<<<<<<<<<<<<//

   => Libint2 <=

    Primary   basis highest AM E, G, H:  5, 4, 3
    Auxiliary basis highest AM E, G, H:  6, 5, 4
    Onebody   basis highest AM E, G, H:  6, 5, 4
    Solid Harmonics ordering:            gaussian

*** tstart() called on moses-razer
*** at Sat Mar  1 19:00:18 2025

   => Loading Basis Set <=

    Name: AUG-CC-PVTZ
    Role: ORBITAL
    Keyword: BASIS
    atoms 1-2, 10-11 entry C          line   239 file /home/kchung25/anaconda3/envs/p415env/share/psi4/basis/aug-cc-pvtz.gbs 
    atoms 3, 12      entry O          line   331 file /home/kchung25/anaconda3/envs/p415env/share/psi4/basis/aug-cc-pvtz.gbs 
    atoms 4-9, 13-18 entry H          line    40 file /home/kchung25/anaconda3/envs/p415env/share/psi4/basis/aug-cc-pvtz.gbs 


         ---------------------------------------------------------
                                   SCF
               by Justin Turney, Rob Parrish, Andy Simmonett
                          and Daniel G. A. Smith
                              RHF Reference
                        1 Threads,   9536 MiB Core
         ---------------------------------------------------------

  ==> Geometry <==

    Molecular point group: c1
    Full point group: C1

    Geometry (in Angstrom), charge = 0, multiplicity = 1:

       Center              X                  Y                   Z               Mass       
    ------------   -----------------  -----------------  -----------------  -----------------
         C           -1.812049000000    -1.313670000000    -0.315971000000    12.000000000000
         C           -1.974663000000    -0.127387000000     0.591559000000    12.000000000000
         O           -2.245825000000     0.998052000000    -0.214631000000    15.994914619570
         H           -2.351964000000     1.768926000000     0.346257000000     1.007825032230
         H           -1.584770000000    -2.214270000000     0.257177000000     1.007825032230
         H           -0.998441000000    -1.140479000000    -1.024415000000     1.007825032230
         H           -2.724973000000    -1.486699000000    -0.888315000000     1.007825032230
         H           -1.056825000000     0.024328000000     1.180454000000     1.007825032230
         H           -2.790662000000    -0.304727000000     1.306389000000     1.007825032230
      Gh(C)           1.280549000000     1.136886000000    -0.192903000000    12.000000000000
      Gh(C)           1.743025000000    -0.292312000000    -0.215131000000    12.000000000000
      Gh(O)           3.051475000000    -0.339538000000     0.307722000000    15.994914619570
      Gh(H)           3.364688000000    -1.245527000000     0.287422000000     1.007825032230
      Gh(H)           0.264456000000     1.225750000000    -0.585081000000     1.007825032230
      Gh(H)           1.944384000000     1.760507000000    -0.794390000000     1.007825032230
      Gh(H)           1.294339000000     1.521489000000     0.829710000000     1.007825032230
      Gh(H)           1.714899000000    -0.680289000000    -1.244464000000     1.007825032230
      Gh(H)           1.058495000000    -0.918225000000     0.379202000000     1.007825032230

  Running in c1 symmetry.

  Rotational constants: A =      0.17940  B =      0.03867  C =      0.03403 [cm^-1]
  Rotational constants: A =   5378.21963  B =   1159.41282  C =   1020.04672 [MHz]
  Nuclear repulsion =   82.284477428654256

  Charge       = 0
  Multiplicity = 1
  Electrons    = 26
  Nalpha       = 13
  Nbeta        = 13

  ==> Algorithm <==

  SCF Algorithm Type is DF.
  DIIS enabled.
  MOM disabled.
  Fractional occupation disabled.
  Guess Type is SAD.
  Energy threshold   = 1.00e-08
  Density threshold  = 1.00e-08
  Integral threshold = 1.00e-12

  ==> Primary Basis <==

  Basis Set: AUG-CC-PVTZ
    Blend: AUG-CC-PVTZ
    Number of shells: 192
    Number of basis functions: 552
    Number of Cartesian functions: 630
    Spherical Harmonics?: true
    Max angular momentum: 3

   => Loading Basis Set <=

    Name: (AUG-CC-PVTZ AUX)
    Role: JKFIT
    Keyword: DF_BASIS_SCF
    atoms 1-2, 10-11 entry C          line   162 file /home/kchung25/anaconda3/envs/p415env/share/psi4/basis/aug-cc-pvtz-jkfit.gbs 
    atoms 3, 12      entry O          line   286 file /home/kchung25/anaconda3/envs/p415env/share/psi4/basis/aug-cc-pvtz-jkfit.gbs 
    atoms 4-9, 13-18 entry H          line    70 file /home/kchung25/anaconda3/envs/p415env/share/psi4/basis/aug-cc-pvtz-jkfit.gbs 

  ==> Integral Setup <==

  ==> DiskDFJK: Density-Fitted J/K Matrices <==

    J tasked:                  Yes
    K tasked:                  Yes
    wK tasked:                  No
    OpenMP threads:              1
    Integrals threads:           1
    Memory [MiB]:             7152
    Algorithm:                Core
    Integral Cache:           LOAD
    Schwarz Cutoff:          1E-12
    Fitting Condition:       1E-10

   => Auxiliary Basis Set <=

  Basis Set: (AUG-CC-PVTZ AUX)
    Blend: AUG-CC-PVTZ-JKFIT
    Number of shells: 348
    Number of basis functions: 1176
    Number of Cartesian functions: 1446
    Spherical Harmonics?: true
    Max angular momentum: 4

  Minimum eigenvalue in the overlap matrix is 6.3856333273E-06.
  Reciprocal condition number of the overlap matrix is 3.3180641703E-07.
    Using symmetric orthogonalization.

  ==> Pre-Iterations <==

  SCF Guess: Superposition of Atomic Densities via on-the-fly atomic UHF (no occupation information).

   -------------------------
    Irrep   Nso     Nmo    
   -------------------------
     A        552     552 
   -------------------------
    Total     552     552
   -------------------------

  ==> Iterations <==

                           Total Energy        Delta E     RMS |[F,P]|

   @DF-RHF iter SAD:  -153.45106597372535   -1.53451e+02   0.00000e+00 
   @DF-RHF iter   1:  -153.99862573353215   -5.47560e-01   9.61079e-04 ADIIS/DIIS
   @DF-RHF iter   2:  -154.11078831091123   -1.12163e-01   5.35313e-04 ADIIS/DIIS
   @DF-RHF iter   3:  -154.14384890690317   -3.30606e-02   8.44156e-05 DIIS
   @DF-RHF iter   4:  -154.14544620248469   -1.59730e-03   3.23384e-05 DIIS
   @DF-RHF iter   5:  -154.14563005283941   -1.83850e-04   5.76357e-06 DIIS
   @DF-RHF iter   6:  -154.14563966057034   -9.60773e-06   1.27620e-06 DIIS
   @DF-RHF iter   7:  -154.14564021667644   -5.56106e-07   3.92155e-07 DIIS
   @DF-RHF iter   8:  -154.14564026049703   -4.38206e-08   1.05022e-07 DIIS
   @DF-RHF iter   9:  -154.14564026468082   -4.18379e-09   2.52870e-08 DIIS
   @DF-RHF iter  10:  -154.14564026494543   -2.64606e-10   4.81412e-09 DIIS
  Energy and wave function converged.


  ==> Post-Iterations <==

    Orbital Energies [Eh]
    ---------------------

    Doubly Occupied:                                                      

       1A    -20.555821     2A    -11.273736     3A    -11.210730  
       4A     -1.362160     5A     -1.013914     6A     -0.833099  
       7A     -0.703627     8A     -0.645611     9A     -0.573966  
      10A     -0.533400    11A     -0.524038    12A     -0.489118  
      13A     -0.440053  

    Virtual:                                                              

      14A      0.021642    15A      0.032116    16A      0.035750  
      17A      0.039248    18A      0.052078    19A      0.053790  
      20A      0.056620    21A      0.058477    22A      0.067821  
      23A      0.079529    24A      0.083450    25A      0.086283  
      26A      0.096837    27A      0.104159    28A      0.111434  
      29A      0.119657    30A      0.122807    31A      0.124794  
      32A      0.130916    33A      0.141463    34A      0.145542  
      35A      0.154110    36A      0.156154    37A      0.160366  
      38A      0.165299    39A      0.172058    40A      0.172474  
      41A      0.188329    42A      0.196275    43A      0.199148  
      44A      0.202637    45A      0.215521    46A      0.232637  
      47A      0.240098    48A      0.245574    49A      0.249255  
      50A      0.258694    51A      0.271036    52A      0.278556  
      53A      0.283241    54A      0.285281    55A      0.295762  
      56A      0.297655    57A      0.301471    58A      0.312615  
      59A      0.315232    60A      0.323656    61A      0.325411  
      62A      0.331888    63A      0.336806    64A      0.340271  
      65A      0.349398    66A      0.353176    67A      0.363185  
      68A      0.367258    69A      0.370352    70A      0.375642  
      71A      0.380328    72A      0.382756    73A      0.384177  
      74A      0.398661    75A      0.404079    76A      0.412281  
      77A      0.416472    78A      0.428140    79A      0.431445  
      80A      0.437298    81A      0.443774    82A      0.451425  
      83A      0.455018    84A      0.461304    85A      0.465001  
      86A      0.470899    87A      0.474064    88A      0.483081  
      89A      0.492418    90A      0.494121    91A      0.504547  
      92A      0.505576    93A      0.508433    94A      0.517929  
      95A      0.521890    96A      0.530707    97A      0.537217  
      98A      0.538487    99A      0.546886   100A      0.556195  
     101A      0.565263   102A      0.567216   103A      0.575770  
     104A      0.579944   105A      0.588970   106A      0.594457  
     107A      0.606697   108A      0.608581   109A      0.622036  
     110A      0.627914   111A      0.632311   112A      0.638057  
     113A      0.644367   114A      0.650767   115A      0.657870  
     116A      0.661582   117A      0.672267   118A      0.676548  
     119A      0.684424   120A      0.694227   121A      0.716240  
     122A      0.728021   123A      0.736552   124A      0.748960  
     125A      0.752709   126A      0.762947   127A      0.780257  
     128A      0.791560   129A      0.802879   130A      0.823033  
     131A      0.825110   132A      0.839005   133A      0.845444  
     134A      0.858648   135A      0.862217   136A      0.876385  
     137A      0.887881   138A      0.892077   139A      0.895754  
     140A      0.906421   141A      0.916125   142A      0.923769  
     143A      0.928334   144A      0.937584   145A      0.950928  
     146A      0.961042   147A      0.970577   148A      0.973051  
     149A      0.981474   150A      0.986440   151A      0.995568  
     152A      1.000049   153A      1.009454   154A      1.018164  
     155A      1.026212   156A      1.029724   157A      1.033884  
     158A      1.041781   159A      1.045032   160A      1.054935  
     161A      1.059126   162A      1.064418   163A      1.073816  
     164A      1.080363   165A      1.087298   166A      1.097516  
     167A      1.100425   168A      1.105042   169A      1.112718  
     170A      1.120876   171A      1.126207   172A      1.133865  
     173A      1.139056   174A      1.145501   175A      1.150652  
     176A      1.158708   177A      1.162234   178A      1.172711  
     179A      1.179116   180A      1.187331   181A      1.194730  
     182A      1.200320   183A      1.212098   184A      1.216574  
     185A      1.222052   186A      1.229110   187A      1.235330  
     188A      1.248112   189A      1.256136   190A      1.259754  
     191A      1.272695   192A      1.282962   193A      1.284566  
     194A      1.289297   195A      1.306753   196A      1.310387  
     197A      1.317254   198A      1.328814   199A      1.342809  
     200A      1.349244   201A      1.351322   202A      1.368126  
     203A      1.369923   204A      1.383457   205A      1.396697  
     206A      1.404442   207A      1.417753   208A      1.422549  
     209A      1.426351   210A      1.441476   211A      1.454740  
     212A      1.458800   213A      1.469548   214A      1.479464  
     215A      1.487610   216A      1.494385   217A      1.502235  
     218A      1.512258   219A      1.538326   220A      1.546931  
     221A      1.557794   222A      1.567481   223A      1.571179  
     224A      1.576600   225A      1.581335   226A      1.594964  
     227A      1.604583   228A      1.607719   229A      1.619169  
     230A      1.629209   231A      1.642595   232A      1.660539  
     233A      1.667130   234A      1.679159   235A      1.690481  
     236A      1.694044   237A      1.706616   238A      1.713164  
     239A      1.720538   240A      1.729542   241A      1.741364  
     242A      1.762201   243A      1.777294   244A      1.780524  
     245A      1.798292   246A      1.799848   247A      1.817232  
     248A      1.828390   249A      1.834717   250A      1.847019  
     251A      1.855962   252A      1.878577   253A      1.880123  
     254A      1.901303   255A      1.913221   256A      1.918458  
     257A      1.931245   258A      1.945237   259A      1.958775  
     260A      1.967006   261A      1.973531   262A      1.980817  
     263A      1.997197   264A      2.008288   265A      2.015617  
     266A      2.034067   267A      2.037764   268A      2.056961  
     269A      2.073489   270A      2.086985   271A      2.089833  
     272A      2.099674   273A      2.107934   274A      2.122016  
     275A      2.127636   276A      2.137693   277A      2.156356  
     278A      2.170573   279A      2.175025   280A      2.189164  
     281A      2.196435   282A      2.206633   283A      2.221012  
     284A      2.244924   285A      2.264220   286A      2.268792  
     287A      2.279949   288A      2.304376   289A      2.305116  
     290A      2.330396   291A      2.345559   292A      2.355751  
     293A      2.385353   294A      2.405682   295A      2.432822  
     296A      2.449940   297A      2.462280   298A      2.469462  
     299A      2.477760   300A      2.510330   301A      2.524283  
     302A      2.528216   303A      2.536026   304A      2.574727  
     305A      2.596816   306A      2.622055   307A      2.652207  
     308A      2.672059   309A      2.694261   310A      2.707282  
     311A      2.713647   312A      2.722183   313A      2.747556  
     314A      2.764603   315A      2.769322   316A      2.786101  
     317A      2.793408   318A      2.816808   319A      2.827799  
     320A      2.857750   321A      2.871047   322A      2.889796  
     323A      2.901254   324A      2.943897   325A      2.970521  
     326A      2.982466   327A      3.023648   328A      3.034089  
     329A      3.051669   330A      3.074770   331A      3.109342  
     332A      3.126419   333A      3.177322   334A      3.187329  
     335A      3.220907   336A      3.234048   337A      3.294610  
     338A      3.341491   339A      3.371702   340A      3.389456  
     341A      3.408391   342A      3.485031   343A      3.503348  
     344A      3.521868   345A      3.540541   346A      3.578371  
     347A      3.584152   348A      3.623091   349A      3.649499  
     350A      3.660609   351A      3.680194   352A      3.693617  
     353A      3.732526   354A      3.750701   355A      3.766303  
     356A      3.790446   357A      3.822606   358A      3.836605  
     359A      3.849255   360A      3.872565   361A      3.907383  
     362A      3.914790   363A      3.940282   364A      3.979617  
     365A      4.000822   366A      4.011271   367A      4.026728  
     368A      4.048572   369A      4.052702   370A      4.083550  
     371A      4.098811   372A      4.124441   373A      4.129123  
     374A      4.159565   375A      4.170708   376A      4.182238  
     377A      4.192026   378A      4.211210   379A      4.221737  
     380A      4.228627   381A      4.237039   382A      4.273191  
     383A      4.282026   384A      4.287314   385A      4.319437  
     386A      4.344981   387A      4.363774   388A      4.374495  
     389A      4.392186   390A      4.394560   391A      4.407518  
     392A      4.418954   393A      4.456157   394A      4.475262  
     395A      4.480791   396A      4.504224   397A      4.527778  
     398A      4.547781   399A      4.553818   400A      4.565788  
     401A      4.597415   402A      4.598614   403A      4.604508  
     404A      4.629715   405A      4.642644   406A      4.666690  
     407A      4.671984   408A      4.690261   409A      4.692616  
     410A      4.711461   411A      4.722760   412A      4.737035  
     413A      4.758113   414A      4.785294   415A      4.800121  
     416A      4.836730   417A      4.838849   418A      4.870554  
     419A      4.879057   420A      4.888602   421A      4.894023  
     422A      4.912639   423A      4.937618   424A      4.950694  
     425A      4.961233   426A      4.982798   427A      5.008317  
     428A      5.021013   429A      5.028840   430A      5.053274  
     431A      5.069209   432A      5.079684   433A      5.089751  
     434A      5.101731   435A      5.112032   436A      5.118008  
     437A      5.157946   438A      5.169631   439A      5.200150  
     440A      5.208410   441A      5.225715   442A      5.248771  
     443A      5.273934   444A      5.284708   445A      5.302964  
     446A      5.327424   447A      5.341869   448A      5.361386  
     449A      5.372168   450A      5.384682   451A      5.401455  
     452A      5.425193   453A      5.458359   454A      5.484652  
     455A      5.500417   456A      5.503201   457A      5.544455  
     458A      5.545167   459A      5.555918   460A      5.582730  
     461A      5.589308   462A      5.595428   463A      5.619781  
     464A      5.631830   465A      5.669261   466A      5.695552  
     467A      5.722842   468A      5.745725   469A      5.756567  
     470A      5.764539   471A      5.796261   472A      5.808695  
     473A      5.827496   474A      5.850911   475A      5.880094  
     476A      5.906322   477A      5.972411   478A      6.016931  
     479A      6.026585   480A      6.061217   481A      6.072530  
     482A      6.083567   483A      6.098156   484A      6.156175  
     485A      6.166910   486A      6.205953   487A      6.234375  
     488A      6.277092   489A      6.284905   490A      6.306778  
     491A      6.310772   492A      6.337009   493A      6.436788  
     494A      6.490924   495A      6.555022   496A      6.725506  
     497A      6.811411   498A      6.819001   499A      6.834530  
     500A      6.878810   501A      6.919837   502A      6.955755  
     503A      6.997657   504A      7.016928   505A      7.068530  
     506A      7.106309   507A      7.164550   508A      7.209790  
     509A      7.243521   510A      7.304581   511A      7.373269  
     512A      7.401198   513A      7.546207   514A      7.560988  
     515A      7.636422   516A      7.744821   517A      7.835691  
     518A      7.848935   519A      7.860109   520A      7.875911  
     521A      7.907959   522A      7.911059   523A      7.983782  
     524A      8.014603   525A      8.105109   526A      8.172350  
     527A      8.198586   528A      8.290919   529A      8.365109  
     530A      8.395247   531A      8.404392   532A      8.590574  
     533A      8.632705   534A      8.893967   535A      9.094960  
     536A      9.930411   537A     10.097636   538A     10.370717  
     539A     10.417742   540A     10.444661   541A     10.845984  
     542A     11.115865   543A     11.922672   544A     12.290476  
     545A     13.309036   546A     14.134559   547A     16.314059  
     548A     18.132389   549A     18.788784   550A     53.519872  
     551A     54.991596   552A     66.033255  

    Final Occupation by Irrep:
              A 
    DOCC [    13 ]
    NA   [    13 ]
    NB   [    13 ]

  @DF-RHF Final Energy:  -154.14564026494543

   => Energetics <=

    Nuclear Repulsion Energy =             82.2844774286542560
    One-Electron Energy =                -372.5416838235079240
    Two-Electron Energy =                 136.1115661299082262
    Total Energy =                       -154.1456402649454276

Computation Completed


Properties will be evaluated at   0.000000,   0.000000,   0.000000 [a0]

Properties computed using the SCF density matrix


 Multipole Moments:

 ------------------------------------------------------------------------------------
     Multipole            Electronic (a.u.)      Nuclear  (a.u.)        Total (a.u.)
 ------------------------------------------------------------------------------------

 L = 1.  Multiply by 2.5417464519 to convert [e a0] to [Debye]
 Dipole X            :         98.6812140          -98.6333235            0.0478905
 Dipole Y            :          7.5797040           -7.5869613           -0.0072573
 Dipole Z            :         -1.4507568            2.1052059            0.6544491
 Magnitude           :                                                    0.6562391

 ------------------------------------------------------------------------------------

*** tstop() called on moses-razer at Sat Mar  1 19:01:57 2025
Module time:
	user time   =      97.63 seconds =       1.63 minutes
	system time =       1.38 seconds =       0.02 minutes
	total time  =         99 seconds =       1.65 minutes
Total time:
	user time   =     222.74 seconds =       3.71 minutes
	system time =       4.23 seconds =       0.07 minutes
	total time  =        227 seconds =       3.78 minutes

  //>>>>>>>>>>>>>>>>>>>>>>>>>>>>>>>>>>>//
  //            Monomer B HF           //
  //<<<<<<<<<<<<<<<<<<<<<<<<<<<<<<<<<<<//

   => Libint2 <=

    Primary   basis highest AM E, G, H:  5, 4, 3
    Auxiliary basis highest AM E, G, H:  6, 5, 4
    Onebody   basis highest AM E, G, H:  6, 5, 4
    Solid Harmonics ordering:            gaussian

*** tstart() called on moses-razer
*** at Sat Mar  1 19:01:57 2025

   => Loading Basis Set <=

    Name: AUG-CC-PVTZ
    Role: ORBITAL
    Keyword: BASIS
    atoms 1-2, 10-11 entry C          line   239 file /home/kchung25/anaconda3/envs/p415env/share/psi4/basis/aug-cc-pvtz.gbs 
    atoms 3, 12      entry O          line   331 file /home/kchung25/anaconda3/envs/p415env/share/psi4/basis/aug-cc-pvtz.gbs 
    atoms 4-9, 13-18 entry H          line    40 file /home/kchung25/anaconda3/envs/p415env/share/psi4/basis/aug-cc-pvtz.gbs 


         ---------------------------------------------------------
                                   SCF
               by Justin Turney, Rob Parrish, Andy Simmonett
                          and Daniel G. A. Smith
                              RHF Reference
                        1 Threads,   9536 MiB Core
         ---------------------------------------------------------

  ==> Geometry <==

    Molecular point group: c1
    Full point group: C1

    Geometry (in Angstrom), charge = 0, multiplicity = 1:

       Center              X                  Y                   Z               Mass       
    ------------   -----------------  -----------------  -----------------  -----------------
      Gh(C)          -1.812049000000    -1.313670000000    -0.315971000000    12.000000000000
      Gh(C)          -1.974663000000    -0.127387000000     0.591559000000    12.000000000000
      Gh(O)          -2.245825000000     0.998052000000    -0.214631000000    15.994914619570
      Gh(H)          -2.351964000000     1.768926000000     0.346257000000     1.007825032230
      Gh(H)          -1.584770000000    -2.214270000000     0.257177000000     1.007825032230
      Gh(H)          -0.998441000000    -1.140479000000    -1.024415000000     1.007825032230
      Gh(H)          -2.724973000000    -1.486699000000    -0.888315000000     1.007825032230
      Gh(H)          -1.056825000000     0.024328000000     1.180454000000     1.007825032230
      Gh(H)          -2.790662000000    -0.304727000000     1.306389000000     1.007825032230
         C            1.280549000000     1.136886000000    -0.192903000000    12.000000000000
         C            1.743025000000    -0.292312000000    -0.215131000000    12.000000000000
         O            3.051475000000    -0.339538000000     0.307722000000    15.994914619570
         H            3.364688000000    -1.245527000000     0.287422000000     1.007825032230
         H            0.264456000000     1.225750000000    -0.585081000000     1.007825032230
         H            1.944384000000     1.760507000000    -0.794390000000     1.007825032230
         H            1.294339000000     1.521489000000     0.829710000000     1.007825032230
         H            1.714899000000    -0.680289000000    -1.244464000000     1.007825032230
         H            1.058495000000    -0.918225000000     0.379202000000     1.007825032230

  Running in c1 symmetry.

  Rotational constants: A =      0.17940  B =      0.03867  C =      0.03403 [cm^-1]
  Rotational constants: A =   5378.21963  B =   1159.41282  C =   1020.04672 [MHz]
  Nuclear repulsion =   82.262708196078293

  Charge       = 0
  Multiplicity = 1
  Electrons    = 26
  Nalpha       = 13
  Nbeta        = 13

  ==> Algorithm <==

  SCF Algorithm Type is DF.
  DIIS enabled.
  MOM disabled.
  Fractional occupation disabled.
  Guess Type is SAD.
  Energy threshold   = 1.00e-08
  Density threshold  = 1.00e-08
  Integral threshold = 1.00e-12

  ==> Primary Basis <==

  Basis Set: AUG-CC-PVTZ
    Blend: AUG-CC-PVTZ
    Number of shells: 192
    Number of basis functions: 552
    Number of Cartesian functions: 630
    Spherical Harmonics?: true
    Max angular momentum: 3

   => Loading Basis Set <=

    Name: (AUG-CC-PVTZ AUX)
    Role: JKFIT
    Keyword: DF_BASIS_SCF
    atoms 1-2, 10-11 entry C          line   162 file /home/kchung25/anaconda3/envs/p415env/share/psi4/basis/aug-cc-pvtz-jkfit.gbs 
    atoms 3, 12      entry O          line   286 file /home/kchung25/anaconda3/envs/p415env/share/psi4/basis/aug-cc-pvtz-jkfit.gbs 
    atoms 4-9, 13-18 entry H          line    70 file /home/kchung25/anaconda3/envs/p415env/share/psi4/basis/aug-cc-pvtz-jkfit.gbs 

  ==> Integral Setup <==

  ==> DiskDFJK: Density-Fitted J/K Matrices <==

    J tasked:                  Yes
    K tasked:                  Yes
    wK tasked:                  No
    OpenMP threads:              1
    Integrals threads:           1
    Memory [MiB]:             7152
    Algorithm:                Core
    Integral Cache:           LOAD
    Schwarz Cutoff:          1E-12
    Fitting Condition:       1E-10

   => Auxiliary Basis Set <=

  Basis Set: (AUG-CC-PVTZ AUX)
    Blend: AUG-CC-PVTZ-JKFIT
    Number of shells: 348
    Number of basis functions: 1176
    Number of Cartesian functions: 1446
    Spherical Harmonics?: true
    Max angular momentum: 4

  Minimum eigenvalue in the overlap matrix is 6.3856333273E-06.
  Reciprocal condition number of the overlap matrix is 3.3180641703E-07.
    Using symmetric orthogonalization.

  ==> Pre-Iterations <==

  SCF Guess: Superposition of Atomic Densities via on-the-fly atomic UHF (no occupation information).

   -------------------------
    Irrep   Nso     Nmo    
   -------------------------
     A        552     552 
   -------------------------
    Total     552     552
   -------------------------

  ==> Iterations <==

                           Total Energy        Delta E     RMS |[F,P]|

   @DF-RHF iter SAD:  -153.45138873744048   -1.53451e+02   0.00000e+00 
   @DF-RHF iter   1:  -153.99872112159747   -5.47332e-01   9.60314e-04 ADIIS/DIIS
   @DF-RHF iter   2:  -154.11085172184403   -1.12131e-01   5.34199e-04 ADIIS/DIIS
   @DF-RHF iter   3:  -154.14378694983461   -3.29352e-02   8.43009e-05 DIIS
   @DF-RHF iter   4:  -154.14538347208781   -1.59652e-03   3.22818e-05 DIIS
   @DF-RHF iter   5:  -154.14556674808512   -1.83276e-04   5.76508e-06 DIIS
   @DF-RHF iter   6:  -154.14557635185562   -9.60377e-06   1.27628e-06 DIIS
   @DF-RHF iter   7:  -154.14557690741012   -5.55554e-07   3.92686e-07 DIIS
   @DF-RHF iter   8:  -154.14557695129059   -4.38805e-08   1.04855e-07 DIIS
   @DF-RHF iter   9:  -154.14557695546850   -4.17791e-09   2.52076e-08 DIIS
   @DF-RHF iter  10:  -154.14557695573026   -2.61764e-10   4.79234e-09 DIIS
  Energy and wave function converged.


  ==> Post-Iterations <==

    Orbital Energies [Eh]
    ---------------------

    Doubly Occupied:                                                      

       1A    -20.556190     2A    -11.273840     3A    -11.211071  
       4A     -1.362739     5A     -1.014049     6A     -0.832799  
       7A     -0.704014     8A     -0.645299     9A     -0.574449  
      10A     -0.534150    11A     -0.524170    12A     -0.488775  
      13A     -0.439606  

    Virtual:                                                              

      14A      0.020508    15A      0.031853    16A      0.035616  
      17A      0.037460    18A      0.051733    19A      0.054416  
      20A      0.056023    21A      0.058475    22A      0.066119  
      23A      0.079986    24A      0.082926    25A      0.086137  
      26A      0.093352    27A      0.104510    28A      0.110611  
      29A      0.117772    30A      0.119796    31A      0.123818  
      32A      0.131956    33A      0.138525    34A      0.145018  
      35A      0.151757    36A      0.157867    37A      0.162458  
      38A      0.167274    39A      0.168556    40A      0.175313  
      41A      0.183567    42A      0.198445    43A      0.199976  
      44A      0.204177    45A      0.213914    46A      0.223954  
      47A      0.235405    48A      0.248794    49A      0.250623  
      50A      0.254462    51A      0.265631    52A      0.270435  
      53A      0.278857    54A      0.288322    55A      0.295831  
      56A      0.298552    57A      0.304087    58A      0.308431  
      59A      0.320171    60A      0.327359    61A      0.334031  
      62A      0.336990    63A      0.339493    64A      0.342884  
      65A      0.348699    66A      0.350757    67A      0.357076  
      68A      0.368198    69A      0.369668    70A      0.370580  
      71A      0.379698    72A      0.384810    73A      0.387274  
      74A      0.397592    75A      0.399010    76A      0.401636  
      77A      0.411193    78A      0.417060    79A      0.429211  
      80A      0.436350    81A      0.438960    82A      0.446600  
      83A      0.449778    84A      0.452048    85A      0.464311  
      86A      0.466643    87A      0.473051    88A      0.475605  
      89A      0.481584    90A      0.495261    91A      0.502711  
      92A      0.504873    93A      0.507473    94A      0.514220  
      95A      0.519579    96A      0.526565    97A      0.532910  
      98A      0.542228    99A      0.545332   100A      0.554432  
     101A      0.561305   102A      0.567674   103A      0.576966  
     104A      0.577416   105A      0.588142   106A      0.593783  
     107A      0.603023   108A      0.614967   109A      0.625158  
     110A      0.632616   111A      0.634760   112A      0.645777  
     113A      0.656439   114A      0.657662   115A      0.659284  
     116A      0.666951   117A      0.671977   118A      0.684263  
     119A      0.690163   120A      0.705750   121A      0.712400  
     122A      0.730200   123A      0.733177   124A      0.737661  
     125A      0.746593   126A      0.761780   127A      0.777125  
     128A      0.787552   129A      0.795843   130A      0.801526  
     131A      0.814198   132A      0.836879   133A      0.845938  
     134A      0.859030   135A      0.866020   136A      0.868639  
     137A      0.876956   138A      0.887054   139A      0.896937  
     140A      0.901817   141A      0.905805   142A      0.917656  
     143A      0.918442   144A      0.930690   145A      0.936114  
     146A      0.943781   147A      0.958937   148A      0.966824  
     149A      0.971846   150A      0.983522   151A      0.995737  
     152A      1.000856   153A      1.009535   154A      1.015616  
     155A      1.017894   156A      1.021698   157A      1.031143  
     158A      1.040027   159A      1.044092   160A      1.048542  
     161A      1.050129   162A      1.058740   163A      1.072856  
     164A      1.076595   165A      1.084729   166A      1.094635  
     167A      1.097570   168A      1.104029   169A      1.113629  
     170A      1.122106   171A      1.125193   172A      1.130626  
     173A      1.142479   174A      1.146378   175A      1.159226  
     176A      1.162492   177A      1.166471   178A      1.171278  
     179A      1.177318   180A      1.190117   181A      1.194697  
     182A      1.200363   183A      1.206836   184A      1.212307  
     185A      1.222505   186A      1.237073   187A      1.244372  
     188A      1.250024   189A      1.264917   190A      1.266668  
     191A      1.275105   192A      1.282426   193A      1.289569  
     194A      1.296372   195A      1.305726   196A      1.311921  
     197A      1.319283   198A      1.322616   199A      1.337807  
     200A      1.345790   201A      1.351760   202A      1.369630  
     203A      1.373092   204A      1.377161   205A      1.392580  
     206A      1.408326   207A      1.414093   208A      1.420172  
     209A      1.434805   210A      1.452698   211A      1.454118  
     212A      1.465855   213A      1.472683   214A      1.481987  
     215A      1.491265   216A      1.498186   217A      1.500431  
     218A      1.511800   219A      1.515931   220A      1.528784  
     221A      1.543622   222A      1.552962   223A      1.565677  
     224A      1.579755   225A      1.584931   226A      1.595205  
     227A      1.601659   228A      1.610670   229A      1.631845  
     230A      1.639332   231A      1.642983   232A      1.658896  
     233A      1.668316   234A      1.677754   235A      1.685384  
     236A      1.699024   237A      1.707716   238A      1.713704  
     239A      1.723049   240A      1.728008   241A      1.745132  
     242A      1.753919   243A      1.763124   244A      1.770047  
     245A      1.785088   246A      1.794476   247A      1.800938  
     248A      1.808052   249A      1.820570   250A      1.836009  
     251A      1.844619   252A      1.859164   253A      1.866947  
     254A      1.876144   255A      1.891641   256A      1.925030  
     257A      1.936541   258A      1.938052   259A      1.951395  
     260A      1.961932   261A      1.968595   262A      1.986205  
     263A      1.996855   264A      2.003423   265A      2.005864  
     266A      2.020083   267A      2.031122   268A      2.038708  
     269A      2.069892   270A      2.082317   271A      2.088985  
     272A      2.095387   273A      2.105500   274A      2.115367  
     275A      2.131489   276A      2.138371   277A      2.144247  
     278A      2.165315   279A      2.172767   280A      2.189446  
     281A      2.202237   282A      2.213017   283A      2.223508  
     284A      2.246996   285A      2.260977   286A      2.269305  
     287A      2.290567   288A      2.298449   289A      2.306819  
     290A      2.318917   291A      2.335465   292A      2.355558  
     293A      2.362607   294A      2.379495   295A      2.403688  
     296A      2.413675   297A      2.444192   298A      2.455797  
     299A      2.479357   300A      2.486680   301A      2.490083  
     302A      2.529285   303A      2.550228   304A      2.580013  
     305A      2.600375   306A      2.610292   307A      2.618384  
     308A      2.630114   309A      2.640125   310A      2.692824  
     311A      2.713669   312A      2.723702   313A      2.728447  
     314A      2.742484   315A      2.765532   316A      2.792742  
     317A      2.811735   318A      2.839274   319A      2.844669  
     320A      2.876394   321A      2.902552   322A      2.930106  
     323A      2.951535   324A      2.957711   325A      2.971711  
     326A      3.008489   327A      3.025834   328A      3.041474  
     329A      3.057412   330A      3.101283   331A      3.113980  
     332A      3.150410   333A      3.166384   334A      3.196961  
     335A      3.226230   336A      3.286959   337A      3.318750  
     338A      3.346132   339A      3.365167   340A      3.409402  
     341A      3.466912   342A      3.484285   343A      3.521601  
     344A      3.522567   345A      3.537086   346A      3.561988  
     347A      3.582391   348A      3.586399   349A      3.627603  
     350A      3.640560   351A      3.643502   352A      3.687810  
     353A      3.694418   354A      3.728381   355A      3.750249  
     356A      3.784180   357A      3.817542   358A      3.849602  
     359A      3.862951   360A      3.876206   361A      3.894418  
     362A      3.897623   363A      3.939210   364A      3.964249  
     365A      3.985252   366A      4.012438   367A      4.029752  
     368A      4.043578   369A      4.064672   370A      4.080754  
     371A      4.110147   372A      4.123136   373A      4.133804  
     374A      4.144817   375A      4.162139   376A      4.178264  
     377A      4.187580   378A      4.199206   379A      4.209897  
     380A      4.219572   381A      4.247343   382A      4.253433  
     383A      4.278112   384A      4.289428   385A      4.317919  
     386A      4.326660   387A      4.340642   388A      4.346070  
     389A      4.363519   390A      4.371025   391A      4.399305  
     392A      4.440337   393A      4.451401   394A      4.472173  
     395A      4.503876   396A      4.526516   397A      4.537743  
     398A      4.544788   399A      4.550952   400A      4.564176  
     401A      4.580125   402A      4.592456   403A      4.620397  
     404A      4.626919   405A      4.643112   406A      4.669913  
     407A      4.690788   408A      4.698466   409A      4.710032  
     410A      4.718691   411A      4.730069   412A      4.752440  
     413A      4.768072   414A      4.780882   415A      4.790819  
     416A      4.821627   417A      4.830505   418A      4.851974  
     419A      4.886375   420A      4.918159   421A      4.919106  
     422A      4.922293   423A      4.939098   424A      4.947335  
     425A      4.954216   426A      4.973833   427A      4.986640  
     428A      5.005251   429A      5.015549   430A      5.033572  
     431A      5.064195   432A      5.070386   433A      5.084209  
     434A      5.104190   435A      5.113903   436A      5.129986  
     437A      5.157067   438A      5.174657   439A      5.177909  
     440A      5.213499   441A      5.234564   442A      5.237794  
     443A      5.251703   444A      5.282618   445A      5.312093  
     446A      5.337621   447A      5.361086   448A      5.361365  
     449A      5.370732   450A      5.391723   451A      5.411471  
     452A      5.433929   453A      5.448551   454A      5.467561  
     455A      5.484373   456A      5.514418   457A      5.522617  
     458A      5.527461   459A      5.551966   460A      5.556129  
     461A      5.591019   462A      5.606902   463A      5.622809  
     464A      5.626484   465A      5.650428   466A      5.674177  
     467A      5.709085   468A      5.718571   469A      5.739757  
     470A      5.771411   471A      5.781489   472A      5.803858  
     473A      5.824316   474A      5.844632   475A      5.868158  
     476A      5.922162   477A      5.953830   478A      6.003688  
     479A      6.022881   480A      6.050201   481A      6.067062  
     482A      6.082171   483A      6.116163   484A      6.137181  
     485A      6.177678   486A      6.196028   487A      6.206082  
     488A      6.217834   489A      6.254447   490A      6.286634  
     491A      6.293302   492A      6.339541   493A      6.464248  
     494A      6.472659   495A      6.564404   496A      6.716193  
     497A      6.743269   498A      6.829831   499A      6.850452  
     500A      6.891541   501A      6.905727   502A      6.925532  
     503A      6.946219   504A      6.956142   505A      7.039309  
     506A      7.112023   507A      7.130878   508A      7.165544  
     509A      7.224909   510A      7.318610   511A      7.371276  
     512A      7.374870   513A      7.523359   514A      7.544152  
     515A      7.625215   516A      7.795479   517A      7.834599  
     518A      7.849546   519A      7.860940   520A      7.885408  
     521A      7.899766   522A      7.915802   523A      7.967962  
     524A      8.002596   525A      8.160821   526A      8.191879  
     527A      8.227400   528A      8.259960   529A      8.332063  
     530A      8.386503   531A      8.443607   532A      8.597044  
     533A      8.640949   534A      8.893780   535A      9.076941  
     536A     10.012929   537A     10.124436   538A     10.379013  
     539A     10.411744   540A     10.460922   541A     10.833371  
     542A     11.082702   543A     12.057453   544A     12.405867  
     545A     13.302544   546A     14.159275   547A     16.037169  
     548A     18.229173   549A     18.826809   550A     53.309749  
     551A     54.868388   552A     66.727993  

    Final Occupation by Irrep:
              A 
    DOCC [    13 ]
    NA   [    13 ]
    NB   [    13 ]

  @DF-RHF Final Energy:  -154.14557695573026

   => Energetics <=

    Nuclear Repulsion Energy =             82.2627081960782931
    One-Electron Energy =                -372.4942685009177126
    Two-Electron Energy =                 136.0859833491091706
    Total Energy =                       -154.1455769557302631

Computation Completed


Properties will be evaluated at   0.000000,   0.000000,   0.000000 [a0]

Properties computed using the SCF density matrix


 Multipole Moments:

 ------------------------------------------------------------------------------------
     Multipole            Electronic (a.u.)      Nuclear  (a.u.)        Total (a.u.)
 ------------------------------------------------------------------------------------

 L = 1.  Multiply by 2.5417464519 to convert [e a0] to [Debye]
 Dipole X            :        -98.9800850           98.6333197           -0.3467653
 Dipole Y            :         -8.0958643            7.5869575           -0.5089068
 Dipole Z            :          1.8804238           -2.1052097           -0.2247860
 Magnitude           :                                                    0.6555616

 ------------------------------------------------------------------------------------

*** tstop() called on moses-razer at Sat Mar  1 19:03:36 2025
Module time:
	user time   =      97.23 seconds =       1.62 minutes
	system time =       1.33 seconds =       0.02 minutes
	total time  =         99 seconds =       1.65 minutes
Total time:
	user time   =     319.98 seconds =       5.33 minutes
	system time =       5.57 seconds =       0.09 minutes
	total time  =        326 seconds =       5.43 minutes
  Constructing Basis Sets for SAPT...

   => Loading Basis Set <=

    Name: (AUG-CC-PVTZ AUX)
    Role: RIFIT
    Keyword: DF_BASIS_SAPT
    atoms 1-2, 10-11 entry C          line   148 file /home/kchung25/anaconda3/envs/p415env/share/psi4/basis/aug-cc-pvtz-ri.gbs 
    atoms 3, 12      entry O          line   264 file /home/kchung25/anaconda3/envs/p415env/share/psi4/basis/aug-cc-pvtz-ri.gbs 
    atoms 4-9, 13-18 entry H          line    30 file /home/kchung25/anaconda3/envs/p415env/share/psi4/basis/aug-cc-pvtz-ri.gbs 

   => Loading Basis Set <=

    Name: (AUG-CC-PVTZ AUX)
    Role: JKFIT
    Keyword: DF_BASIS_ELST
    atoms 1-2, 10-11 entry C          line   162 file /home/kchung25/anaconda3/envs/p415env/share/psi4/basis/aug-cc-pvtz-jkfit.gbs 
    atoms 3, 12      entry O          line   286 file /home/kchung25/anaconda3/envs/p415env/share/psi4/basis/aug-cc-pvtz-jkfit.gbs 
    atoms 4-9, 13-18 entry H          line    70 file /home/kchung25/anaconda3/envs/p415env/share/psi4/basis/aug-cc-pvtz-jkfit.gbs 


  //>>>>>>>>>>>>>>>>>>>>>>>>>>>>>>>>>>>//
  //               SAPT2+              //
  //<<<<<<<<<<<<<<<<<<<<<<<<<<<<<<<<<<<//


*** tstart() called on moses-razer
*** at Sat Mar  1 19:03:36 2025

        SAPT2+  
    Ed Hohenstein
     6 June 2009

      Orbital Information
  --------------------------
    NSO        =       552
    NMO        =       552
    NRI        =      1188
    NOCC A     =        13
    NOCC B     =        13
    FOCC A     =         0
    FOCC B     =         0
    NVIR A     =       539
    NVIR B     =       539

    Estimated memory usage: 3939.5 MB

    Natural Orbital Cutoff:   1.000E-06
    Disp(T3) Truncation:            Yes
    CCD (vv|vv) Truncation:         Yes
    MBPT T2 Truncation:             Yes

    Monomer A: 306 virtual orbitals dropped
    Monomer B: 307 virtual orbitals dropped

    Elst10,r            =    -0.002895403646 [Eh]
    Exch10 (S^2)        =     0.006608998330 [Eh]
    Exch10              =     0.006625528840 [Eh]
    Ind20,r (A<-B)      =    -0.000488152312 [Eh]
    Ind20,r (B<-A)      =    -0.001057655281 [Eh]
    Ind20,r             =    -0.001545807593 [Eh]
    Exch-Ind20,r (A<-B) =     0.000375100333 [Eh]
    Exch-Ind20,r (B<-A) =     0.000859523742 [Eh]
    Exch-Ind20,r        =     0.001234624074 [Eh]
    Disp20              =    -0.006954471323 [Eh]
    Disp20 (NO)         =    -0.006195040157 [Eh]
    Exch-Disp20         =     0.000735814309 [Eh]
    Elst12,r            =    -0.000510032049 [Eh]
    Exch11              =     0.000134798550 [Eh]
    Exch12              =     0.000724597521 [Eh]
    Ind22               =    -0.000195387144 [Eh]
    Disp21              =     0.000276997231 [Eh]
    Disp22 (SDQ)        =     0.000229959453 [Eh]

    (i =   1 of  13)        392 seconds
    (i =   2 of  13)        732 seconds
    (i =   3 of  13)       1191 seconds
    (i =   4 of  13)       1651 seconds
    (i =   5 of  13)       2113 seconds
    (i =   6 of  13)       2575 seconds
    (i =   7 of  13)       3036 seconds
    (i =   8 of  13)       3380 seconds
    (i =   9 of  13)       3696 seconds
    (i =  10 of  13)       3937 seconds
    (i =  11 of  13)       4179 seconds
    (i =  12 of  13)       4423 seconds
    (i =  13 of  13)       4666 seconds

    Disp220 (T)         =    -0.000494770118 [Eh]

    (i =   1 of  13)        241 seconds
    (i =   2 of  13)        481 seconds
    (i =   3 of  13)        720 seconds
    (i =   4 of  13)        959 seconds
    (i =   5 of  13)       1198 seconds
    (i =   6 of  13)       1438 seconds
    (i =   7 of  13)       1676 seconds
    (i =   8 of  13)       1915 seconds
    (i =   9 of  13)       2153 seconds
    (i =  10 of  13)       2392 seconds
    (i =  11 of  13)       2628 seconds
    (i =  12 of  13)       2863 seconds
    (i =  13 of  13)       3103 seconds

    Disp202 (T)         =    -0.000450961099 [Eh]

    Disp22 (T)          =    -0.000945731217 [Eh]

    Est. Disp220 (T)    =    -0.000555422485 [Eh]
    Est. Disp202 (T)    =    -0.000506243051 [Eh]

    Est. Disp22 (T)     =    -0.001061665536 [Eh]

    SAPT Results 
  --------------------------------------------------------------------------------------------------------
    Electrostatics                 -3.40543570 [mEh]      -2.13694316 [kcal/mol]      -8.94097019 [kJ/mol]
      Elst10,r                     -2.89540365 [mEh]      -1.81689322 [kcal/mol]      -7.60188123 [kJ/mol]
      Elst12,r                     -0.51003205 [mEh]      -0.32004994 [kcal/mol]      -1.33908896 [kJ/mol]

    Exchange                        7.48492491 [mEh]       4.69686129 [kcal/mol]      19.65166765 [kJ/mol]
      Exch10                        6.62552884 [mEh]       4.15758212 [kcal/mol]      17.39532357 [kJ/mol]
      Exch10(S^2)                   6.60899833 [mEh]       4.14720906 [kcal/mol]      17.35192272 [kJ/mol]
      Exch11(S^2)                   0.13479855 [mEh]       0.08458737 [kcal/mol]       0.35391355 [kJ/mol]
      Exch12(S^2)                   0.72459752 [mEh]       0.45469181 [kcal/mol]       1.90243053 [kJ/mol]

    Induction                      -0.82232723 [mEh]      -0.51601813 [kcal/mol]      -2.15901985 [kJ/mol]
      Ind20,r                      -1.54580759 [mEh]      -0.97000891 [kcal/mol]      -4.05851728 [kJ/mol]
      Ind22                        -0.19538714 [mEh]      -0.12260728 [kcal/mol]      -0.51298888 [kJ/mol]
      Exch-Ind20,r                  1.23462407 [mEh]       0.77473830 [kcal/mol]       3.24150506 [kJ/mol]
      Exch-Ind22                    0.15605414 [mEh]       0.09792545 [kcal/mol]       0.40972008 [kJ/mol]
      delta HF,r (2)               -0.47181071 [mEh]      -0.29606569 [kcal/mol]      -1.23873885 [kJ/mol]

    Dispersion                     -6.77336587 [mEh]      -4.25035125 [kcal/mol]     -17.78346963 [kJ/mol]
      Disp20                       -6.95447132 [mEh]      -4.36399664 [kcal/mol]     -18.25896194 [kJ/mol]
      Disp21                        0.27699723 [mEh]       0.17381839 [kcal/mol]       0.72725613 [kJ/mol]
      Disp22 (SDQ)                  0.22995945 [mEh]       0.14430174 [kcal/mol]       0.60375846 [kJ/mol]
      Disp22 (T)                   -0.94573122 [mEh]      -0.59345530 [kcal/mol]      -2.48301697 [kJ/mol]
      Est. Disp22 (T)              -1.06166554 [mEh]      -0.66620518 [kcal/mol]      -2.78740248 [kJ/mol]
      Exch-Disp20                   0.73581431 [mEh]       0.46173045 [kcal/mol]       1.93188020 [kJ/mol]

  Total HF                          2.94713097 [mEh]       1.84935260 [kcal/mol]       7.73769129 [kJ/mol]
  Total SAPT0                      -3.27152605 [mEh]      -2.05291359 [kcal/mol]      -8.58939045 [kJ/mol]
  Total SAPT2                      -2.96149503 [mEh]      -1.85836619 [kcal/mol]      -7.77540413 [kJ/mol]
  Total SAPT2+                     -3.51620388 [mEh]      -2.20645125 [kcal/mol]      -9.23179202 [kJ/mol]

  Special recipe for scaled SAPT0 (see Manual):
    Electrostatics sSAPT0          -2.89540365 [mEh]      -1.81689322 [kcal/mol]      -7.60188123 [kJ/mol]
    Exchange sSAPT0                 6.62552884 [mEh]       4.15758212 [kcal/mol]      17.39532357 [kJ/mol]
    Induction sSAPT0               -0.77370686 [mEh]      -0.48550839 [kcal/mol]      -2.03136709 [kJ/mol]
    Dispersion sSAPT0              -6.21312191 [mEh]      -3.89879286 [kcal/mol]     -16.31254932 [kJ/mol]
  Total sSAPT0                     -3.25670358 [mEh]      -2.04361235 [kcal/mol]      -8.55047407 [kJ/mol]
  --------------------------------------------------------------------------------------------------------

*** tstop() called on moses-razer at Sat Mar  1 21:44:05 2025
Module time:
	user time   =    9469.55 seconds =     157.83 minutes
	system time =     125.91 seconds =       2.10 minutes
	total time  =       9629 seconds =     160.48 minutes
Total time:
	user time   =    9789.73 seconds =     163.16 minutes
	system time =     131.48 seconds =       2.19 minutes
	total time  =       9955 seconds =     165.92 minutes

    Psi4 stopped on: Saturday, 01 March 2025 09:44PM
    Psi4 wall time for execution: 2:45:55.70

*** Psi4 exiting successfully. Buy a developer a beer!
