
    -----------------------------------------------------------------------
          Psi4: An Open-Source Ab Initio Electronic Structure Package
                               Psi4 1.9 release

                         Git: Rev {} zzzzzzz 


    D. G. A. Smith, L. A. Burns, A. C. Simmonett, R. M. Parrish,
    M. C. Schieber, R. Galvelis, P. Kraus, H. Kruse, R. Di Remigio,
    A. Alenaizan, A. M. James, S. Lehtola, J. P. Misiewicz, M. Scheurer,
    R. A. Shaw, J. B. Schriber, Y. Xie, Z. L. Glick, D. A. Sirianni,
    J. S. O'Brien, J. M. Waldrop, A. Kumar, E. G. Hohenstein,
    B. P. Pritchard, B. R. Brooks, H. F. Schaefer III, A. Yu. Sokolov,
    K. Patkowski, A. E. DePrince III, U. Bozkaya, R. A. King,
    F. A. Evangelista, J. M. Turney, T. D. Crawford, C. D. Sherrill,
    J. Chem. Phys. 152(18) 184108 (2020). https://doi.org/10.1063/5.0006002

                            Additional Code Authors
    E. T. Seidl, C. L. Janssen, E. F. Valeev, M. L. Leininger,
    J. F. Gonthier, R. M. Richard, H. R. McAlexander, M. Saitow, X. Wang,
    P. Verma, M. H. Lechner, A. Jiang, S. Behnle, A. G. Heide,
    M. F. Herbst, and D. L. Poole

             Previous Authors, Complete List of Code Contributors,
                       and Citations for Specific Modules
    https://github.com/psi4/psi4/blob/master/codemeta.json
    https://github.com/psi4/psi4/graphs/contributors
    http://psicode.org/psi4manual/master/introduction.html#citing-psifour

    -----------------------------------------------------------------------


    Psi4 started on: Saturday, 01 March 2025 12:16PM

    Process ID: 189807
    Host:       moses-razer
    PSIDATADIR: /home/kchung25/anaconda3/envs/psi4_19/share/psi4
    Memory:     500.0 MiB
    Threads:    1
    
  ==> Input File <==

--------------------------------------------------------------------------
MEMORY 10 GB

molecule dimer {
0 1
C   -1.625807   1.059484   0.634878
C   -2.134810   0.062561  -0.367521
O   -1.503556  -1.178408  -0.117601
H   -1.853884  -1.833659  -0.723908
H   -2.131355   2.018747   0.511181
H   -0.552167   1.223174   0.512937
H   -1.811479   0.701238   1.649803
H   -1.916676   0.411376  -1.387910
H   -3.226488  -0.037051  -0.285713
--
0 1
C    1.829110  -0.956948   0.707802
C    1.684364  -0.165801  -0.565959
O    1.716030   1.229112  -0.342372
H    2.511858   1.436374   0.154053
H    1.762317  -2.028976   0.511733
H    1.036444  -0.694057   1.410849
H    2.795718  -0.763017   1.184059
H    0.712375  -0.376648  -1.020251
H    2.456407  -0.458908  -1.292244

units ang
no_reorient
no_com
symmetry c1
}

set {
basis        aug-cc-pVTZ
scf_type     df
}

energy("sapt2+")
--------------------------------------------------------------------------

  Memory set to   9.313 GiB by Python driver.

Scratch directory: /scratch/
   => Loading Basis Set <=

    Name: AUG-CC-PVTZ
    Role: ORBITAL
    Keyword: BASIS
    atoms 1-2, 10-11 entry C          line   239 file /home/kchung25/anaconda3/envs/p415env/share/psi4/basis/aug-cc-pvtz.gbs 
    atoms 3, 12      entry O          line   331 file /home/kchung25/anaconda3/envs/p415env/share/psi4/basis/aug-cc-pvtz.gbs 
    atoms 4-9, 13-18 entry H          line    40 file /home/kchung25/anaconda3/envs/p415env/share/psi4/basis/aug-cc-pvtz.gbs 

   => Loading Basis Set <=

    Name: AUG-CC-PVTZ
    Role: ORBITAL
    Keyword: BASIS
    atoms 1-2, 10-11 entry C          line   239 file /home/kchung25/anaconda3/envs/p415env/share/psi4/basis/aug-cc-pvtz.gbs 
    atoms 3, 12      entry O          line   331 file /home/kchung25/anaconda3/envs/p415env/share/psi4/basis/aug-cc-pvtz.gbs 
    atoms 4-9, 13-18 entry H          line    40 file /home/kchung25/anaconda3/envs/p415env/share/psi4/basis/aug-cc-pvtz.gbs 


  //>>>>>>>>>>>>>>>>>>>>>>>>>>>>>>>>>>>//
  //              Dimer HF             //
  //<<<<<<<<<<<<<<<<<<<<<<<<<<<<<<<<<<<//

   => Libint2 <=

    Primary   basis highest AM E, G, H:  5, 4, 3
    Auxiliary basis highest AM E, G, H:  6, 5, 4
    Onebody   basis highest AM E, G, H:  6, 5, 4
    Solid Harmonics ordering:            gaussian

*** tstart() called on moses-razer
*** at Sat Mar  1 12:16:35 2025

   => Loading Basis Set <=

    Name: AUG-CC-PVTZ
    Role: ORBITAL
    Keyword: BASIS
    atoms 1-2, 10-11 entry C          line   239 file /home/kchung25/anaconda3/envs/p415env/share/psi4/basis/aug-cc-pvtz.gbs 
    atoms 3, 12      entry O          line   331 file /home/kchung25/anaconda3/envs/p415env/share/psi4/basis/aug-cc-pvtz.gbs 
    atoms 4-9, 13-18 entry H          line    40 file /home/kchung25/anaconda3/envs/p415env/share/psi4/basis/aug-cc-pvtz.gbs 


         ---------------------------------------------------------
                                   SCF
               by Justin Turney, Rob Parrish, Andy Simmonett
                          and Daniel G. A. Smith
                              RHF Reference
                        1 Threads,   9536 MiB Core
         ---------------------------------------------------------

  ==> Geometry <==

    Molecular point group: c1
    Full point group: C1

    Geometry (in Angstrom), charge = 0, multiplicity = 1:

       Center              X                  Y                   Z               Mass       
    ------------   -----------------  -----------------  -----------------  -----------------
         C           -1.625807000000     1.059484000000     0.634878000000    12.000000000000
         C           -2.134810000000     0.062561000000    -0.367521000000    12.000000000000
         O           -1.503556000000    -1.178408000000    -0.117601000000    15.994914619570
         H           -1.853884000000    -1.833659000000    -0.723908000000     1.007825032230
         H           -2.131355000000     2.018747000000     0.511181000000     1.007825032230
         H           -0.552167000000     1.223174000000     0.512937000000     1.007825032230
         H           -1.811479000000     0.701238000000     1.649803000000     1.007825032230
         H           -1.916676000000     0.411376000000    -1.387910000000     1.007825032230
         H           -3.226488000000    -0.037051000000    -0.285713000000     1.007825032230
         C            1.829110000000    -0.956948000000     0.707802000000    12.000000000000
         C            1.684364000000    -0.165801000000    -0.565959000000    12.000000000000
         O            1.716030000000     1.229112000000    -0.342372000000    15.994914619570
         H            2.511858000000     1.436374000000     0.154053000000     1.007825032230
         H            1.762317000000    -2.028976000000     0.511733000000     1.007825032230
         H            1.036444000000    -0.694057000000     1.410849000000     1.007825032230
         H            2.795718000000    -0.763017000000     1.184059000000     1.007825032230
         H            0.712375000000    -0.376648000000    -1.020251000000     1.007825032230
         H            2.456407000000    -0.458908000000    -1.292244000000     1.007825032230

  Running in c1 symmetry.

  Rotational constants: A =      0.14178  B =      0.05177  C =      0.04397 [cm^-1]
  Rotational constants: A =   4250.56229  B =   1551.88182  C =   1318.24513 [MHz]
  Nuclear repulsion =  257.551033856172239

  Charge       = 0
  Multiplicity = 1
  Electrons    = 52
  Nalpha       = 26
  Nbeta        = 26

  ==> Algorithm <==

  SCF Algorithm Type is DF.
  DIIS enabled.
  MOM disabled.
  Fractional occupation disabled.
  Guess Type is SAD.
  Energy threshold   = 1.00e-08
  Density threshold  = 1.00e-08
  Integral threshold = 1.00e-12

  ==> Primary Basis <==

  Basis Set: AUG-CC-PVTZ
    Blend: AUG-CC-PVTZ
    Number of shells: 192
    Number of basis functions: 552
    Number of Cartesian functions: 630
    Spherical Harmonics?: true
    Max angular momentum: 3

   => Loading Basis Set <=

    Name: (AUG-CC-PVTZ AUX)
    Role: JKFIT
    Keyword: DF_BASIS_SCF
    atoms 1-2, 10-11 entry C          line   162 file /home/kchung25/anaconda3/envs/p415env/share/psi4/basis/aug-cc-pvtz-jkfit.gbs 
    atoms 3, 12      entry O          line   286 file /home/kchung25/anaconda3/envs/p415env/share/psi4/basis/aug-cc-pvtz-jkfit.gbs 
    atoms 4-9, 13-18 entry H          line    70 file /home/kchung25/anaconda3/envs/p415env/share/psi4/basis/aug-cc-pvtz-jkfit.gbs 

  ==> Integral Setup <==

  ==> DiskDFJK: Density-Fitted J/K Matrices <==

    J tasked:                  Yes
    K tasked:                  Yes
    wK tasked:                  No
    OpenMP threads:              1
    Integrals threads:           1
    Memory [MiB]:             7152
    Algorithm:                Core
    Integral Cache:           SAVE
    Schwarz Cutoff:          1E-12
    Fitting Condition:       1E-10

   => Auxiliary Basis Set <=

  Basis Set: (AUG-CC-PVTZ AUX)
    Blend: AUG-CC-PVTZ-JKFIT
    Number of shells: 348
    Number of basis functions: 1176
    Number of Cartesian functions: 1446
    Spherical Harmonics?: true
    Max angular momentum: 4

  Minimum eigenvalue in the overlap matrix is 6.2766507041E-06.
  Reciprocal condition number of the overlap matrix is 3.3068747562E-07.
    Using symmetric orthogonalization.

  ==> Pre-Iterations <==

  SCF Guess: Superposition of Atomic Densities via on-the-fly atomic UHF (no occupation information).

   -------------------------
    Irrep   Nso     Nmo    
   -------------------------
     A        552     552 
   -------------------------
    Total     552     552
   -------------------------

  ==> Iterations <==

                           Total Energy        Delta E     RMS |[F,P]|

   @DF-RHF iter SAD:  -307.05704416965830   -3.07057e+02   0.00000e+00 
   @DF-RHF iter   1:  -308.00194383565315   -9.44900e-01   1.33185e-03 DIIS/ADIIS
   @DF-RHF iter   2:  -308.22471018036680   -2.22766e-01   7.19413e-04 DIIS/ADIIS
   @DF-RHF iter   3:  -308.28504033532687   -6.03302e-02   1.21565e-04 DIIS/ADIIS
   @DF-RHF iter   4:  -308.28830182809520   -3.26149e-03   4.51524e-05 DIIS
   @DF-RHF iter   5:  -308.28866457070734   -3.62743e-04   8.69549e-06 DIIS
   @DF-RHF iter   6:  -308.28868547460564   -2.09039e-05   2.05253e-06 DIIS
   @DF-RHF iter   7:  -308.28868690728473   -1.43268e-06   6.01396e-07 DIIS
   @DF-RHF iter   8:  -308.28868701730096   -1.10016e-07   1.76167e-07 DIIS
   @DF-RHF iter   9:  -308.28868702883051   -1.15296e-08   4.58118e-08 DIIS
   @DF-RHF iter  10:  -308.28868702966031   -8.29800e-10   1.19007e-08 DIIS
   @DF-RHF iter  11:  -308.28868702969817   -3.78577e-11   4.79797e-09 DIIS
  Energy and wave function converged.


  ==> Post-Iterations <==

    Orbital Energies [Eh]
    ---------------------

    Doubly Occupied:                                                      

       1A    -20.555278     2A    -20.549860     3A    -11.270117  
       4A    -11.262174     5A    -11.206749     6A    -11.200348  
       7A     -1.361271     8A     -1.355988     9A     -1.008142  
      10A     -1.004113    11A     -0.838868    12A     -0.827802  
      13A     -0.701707    14A     -0.679639    15A     -0.643904  
      16A     -0.614945    17A     -0.605774    18A     -0.571710  
      19A     -0.535371    20A     -0.525652    21A     -0.518174  
      22A     -0.514095    23A     -0.484530    24A     -0.471879  
      25A     -0.437750    26A     -0.434831  

    Virtual:                                                              

      27A      0.028341    28A      0.034250    29A      0.038653  
      30A      0.041282    31A      0.051205    32A      0.053784  
      33A      0.054878    34A      0.060242    35A      0.071663  
      36A      0.082991    37A      0.087068    38A      0.089515  
      39A      0.103308    40A      0.113838    41A      0.120909  
      42A      0.126237    43A      0.127609    44A      0.133291  
      45A      0.139597    46A      0.146706    47A      0.154912  
      48A      0.156686    49A      0.160792    50A      0.165152  
      51A      0.171691    52A      0.180341    53A      0.182407  
      54A      0.190319    55A      0.193304    56A      0.209629  
      57A      0.215025    58A      0.232835    59A      0.235797  
      60A      0.242513    61A      0.249679    62A      0.262579  
      63A      0.276003    64A      0.286241    65A      0.291004  
      66A      0.293534    67A      0.296883    68A      0.301441  
      69A      0.304405    70A      0.314721    71A      0.316514  
      72A      0.323197    73A      0.330017    74A      0.335620  
      75A      0.343835    76A      0.348410    77A      0.352851  
      78A      0.354328    79A      0.360359    80A      0.369155  
      81A      0.371582    82A      0.374115    83A      0.381354  
      84A      0.394430    85A      0.396421    86A      0.408246  
      87A      0.412541    88A      0.413855    89A      0.420880  
      90A      0.421800    91A      0.430246    92A      0.430973  
      93A      0.435257    94A      0.441439    95A      0.449766  
      96A      0.451844    97A      0.454247    98A      0.467677  
      99A      0.470624   100A      0.472173   101A      0.478037  
     102A      0.482799   103A      0.486316   104A      0.493483  
     105A      0.499607   106A      0.505674   107A      0.509002  
     108A      0.520626   109A      0.523870   110A      0.530022  
     111A      0.533238   112A      0.541838   113A      0.545756  
     114A      0.547064   115A      0.554284   116A      0.564722  
     117A      0.571472   118A      0.578883   119A      0.580725  
     120A      0.589004   121A      0.594791   122A      0.603030  
     123A      0.611510   124A      0.617603   125A      0.624442  
     126A      0.629813   127A      0.638737   128A      0.654529  
     129A      0.658196   130A      0.669143   131A      0.673101  
     132A      0.684735   133A      0.691170   134A      0.714095  
     135A      0.733912   136A      0.741632   137A      0.756795  
     138A      0.774941   139A      0.787450   140A      0.790916  
     141A      0.804661   142A      0.811300   143A      0.822529  
     144A      0.824440   145A      0.827304   146A      0.847259  
     147A      0.861558   148A      0.864162   149A      0.870799  
     150A      0.877542   151A      0.879808   152A      0.885770  
     153A      0.893803   154A      0.898089   155A      0.906429  
     156A      0.914153   157A      0.925698   158A      0.926671  
     159A      0.932362   160A      0.936426   161A      0.945767  
     162A      0.957528   163A      0.963847   164A      0.969610  
     165A      0.983750   166A      0.991319   167A      0.995424  
     168A      0.998029   169A      1.004837   170A      1.015819  
     171A      1.017692   172A      1.029870   173A      1.034549  
     174A      1.039439   175A      1.045861   176A      1.048519  
     177A      1.057648   178A      1.063381   179A      1.073672  
     180A      1.076758   181A      1.086590   182A      1.088852  
     183A      1.099673   184A      1.105414   185A      1.112381  
     186A      1.119354   187A      1.124860   188A      1.128906  
     189A      1.135719   190A      1.139062   191A      1.146256  
     192A      1.160331   193A      1.167560   194A      1.180133  
     195A      1.184501   196A      1.193492   197A      1.200426  
     198A      1.210500   199A      1.215152   200A      1.216562  
     201A      1.225540   202A      1.231440   203A      1.237702  
     204A      1.259699   205A      1.263335   206A      1.276036  
     207A      1.278217   208A      1.286387   209A      1.294635  
     210A      1.297608   211A      1.308323   212A      1.319585  
     213A      1.330430   214A      1.337411   215A      1.345658  
     216A      1.356695   217A      1.366426   218A      1.373743  
     219A      1.384820   220A      1.395006   221A      1.408650  
     222A      1.421729   223A      1.427960   224A      1.432801  
     225A      1.437888   226A      1.445214   227A      1.453652  
     228A      1.460029   229A      1.486281   230A      1.491995  
     231A      1.504811   232A      1.513997   233A      1.523427  
     234A      1.531342   235A      1.544222   236A      1.564582  
     237A      1.578175   238A      1.582730   239A      1.593539  
     240A      1.610336   241A      1.615900   242A      1.622457  
     243A      1.637823   244A      1.649458   245A      1.659635  
     246A      1.663367   247A      1.671572   248A      1.688009  
     249A      1.689653   250A      1.698198   251A      1.700786  
     252A      1.720316   253A      1.728509   254A      1.729787  
     255A      1.737546   256A      1.749631   257A      1.757817  
     258A      1.769567   259A      1.775980   260A      1.789219  
     261A      1.794689   262A      1.808302   263A      1.813563  
     264A      1.819725   265A      1.830944   266A      1.838706  
     267A      1.847701   268A      1.864851   269A      1.866761  
     270A      1.872623   271A      1.891182   272A      1.899524  
     273A      1.910755   274A      1.926614   275A      1.934338  
     276A      1.942763   277A      1.944450   278A      1.968690  
     279A      1.982709   280A      1.998385   281A      2.004399  
     282A      2.012054   283A      2.030591   284A      2.045846  
     285A      2.053606   286A      2.065356   287A      2.076457  
     288A      2.095345   289A      2.102366   290A      2.114313  
     291A      2.120687   292A      2.130109   293A      2.147190  
     294A      2.151897   295A      2.166076   296A      2.176974  
     297A      2.208817   298A      2.215456   299A      2.232393  
     300A      2.254623   301A      2.262853   302A      2.279096  
     303A      2.284140   304A      2.289635   305A      2.295630  
     306A      2.323009   307A      2.346373   308A      2.361609  
     309A      2.386879   310A      2.391172   311A      2.411156  
     312A      2.429419   313A      2.450455   314A      2.477561  
     315A      2.490074   316A      2.504173   317A      2.537310  
     318A      2.549212   319A      2.577289   320A      2.590219  
     321A      2.621971   322A      2.632142   323A      2.702801  
     324A      2.714894   325A      2.734439   326A      2.743922  
     327A      2.761658   328A      2.776415   329A      2.845836  
     330A      2.881599   331A      2.889684   332A      2.909556  
     333A      2.927260   334A      2.940093   335A      2.964309  
     336A      2.971672   337A      2.985668   338A      3.000445  
     339A      3.013223   340A      3.061891   341A      3.065140  
     342A      3.093133   343A      3.106554   344A      3.127312  
     345A      3.171815   346A      3.203974   347A      3.223525  
     348A      3.254994   349A      3.313473   350A      3.355318  
     351A      3.410627   352A      3.445464   353A      3.460383  
     354A      3.487498   355A      3.497419   356A      3.512191  
     357A      3.527731   358A      3.537655   359A      3.554372  
     360A      3.594550   361A      3.598040   362A      3.632597  
     363A      3.643386   364A      3.656707   365A      3.660262  
     366A      3.688846   367A      3.712455   368A      3.720706  
     369A      3.742880   370A      3.757097   371A      3.776526  
     372A      3.783057   373A      3.793993   374A      3.796248  
     375A      3.811381   376A      3.818742   377A      3.839822  
     378A      3.844445   379A      3.865316   380A      3.882159  
     381A      3.903516   382A      3.916743   383A      3.946894  
     384A      3.954866   385A      3.959181   386A      3.974009  
     387A      3.993908   388A      4.000352   389A      4.021673  
     390A      4.022629   391A      4.032593   392A      4.038644  
     393A      4.064345   394A      4.068032   395A      4.073360  
     396A      4.087814   397A      4.110298   398A      4.120202  
     399A      4.128762   400A      4.145597   401A      4.158518  
     402A      4.175732   403A      4.192288   404A      4.206424  
     405A      4.222177   406A      4.236841   407A      4.241440  
     408A      4.254275   409A      4.262790   410A      4.293507  
     411A      4.305097   412A      4.309868   413A      4.336171  
     414A      4.356852   415A      4.373824   416A      4.386251  
     417A      4.392552   418A      4.424754   419A      4.455650  
     420A      4.459474   421A      4.511844   422A      4.518669  
     423A      4.535662   424A      4.552253   425A      4.553182  
     426A      4.567316   427A      4.584431   428A      4.612633  
     429A      4.616788   430A      4.634272   431A      4.645620  
     432A      4.658899   433A      4.670357   434A      4.698337  
     435A      4.720924   436A      4.729131   437A      4.739231  
     438A      4.748768   439A      4.799990   440A      4.821540  
     441A      4.827074   442A      4.840656   443A      4.859853  
     444A      4.872313   445A      4.898204   446A      4.904215  
     447A      4.918734   448A      4.930436   449A      4.949950  
     450A      4.955902   451A      4.972195   452A      5.005322  
     453A      5.012292   454A      5.033694   455A      5.046656  
     456A      5.069022   457A      5.079876   458A      5.101216  
     459A      5.114549   460A      5.144409   461A      5.156916  
     462A      5.167042   463A      5.184846   464A      5.187768  
     465A      5.210230   466A      5.249516   467A      5.253914  
     468A      5.270759   469A      5.276452   470A      5.291827  
     471A      5.328761   472A      5.346054   473A      5.370205  
     474A      5.378931   475A      5.403975   476A      5.418454  
     477A      5.433611   478A      5.452682   479A      5.487869  
     480A      5.496814   481A      5.545893   482A      5.553262  
     483A      5.571030   484A      5.590135   485A      5.594604  
     486A      5.608590   487A      5.624244   488A      5.662495  
     489A      5.672065   490A      5.696268   491A      5.726629  
     492A      5.760002   493A      5.775885   494A      5.796123  
     495A      5.815264   496A      5.835885   497A      5.868231  
     498A      5.907530   499A      6.030149   500A      6.035524  
     501A      6.061550   502A      6.122858   503A      6.126904  
     504A      6.164993   505A      6.189370   506A      6.224945  
     507A      6.247451   508A      6.269620   509A      6.288010  
     510A      6.307986   511A      6.337495   512A      6.362694  
     513A      6.435906   514A      6.463731   515A      6.712856  
     516A      6.733707   517A      6.746850   518A      6.812665  
     519A      6.824229   520A      6.869238   521A      6.907670  
     522A      6.931939   523A      6.982958   524A      6.994731  
     525A      7.046256   526A      7.056212   527A      7.192504  
     528A      7.204018   529A      7.350712   530A      7.384473  
     531A      7.396730   532A      7.419478   533A      7.512404  
     534A      7.539966   535A      7.556398   536A      7.564191  
     537A      7.657843   538A      7.682157   539A      7.861965  
     540A      7.892929   541A      7.973045   542A      7.995455  
     543A      8.276799   544A      8.288883   545A      8.679475  
     546A      8.681244   547A     16.230961   548A     16.398705  
     549A     17.917616   550A     18.177010   551A     18.731164  
     552A     18.833512  

    Final Occupation by Irrep:
              A 
    DOCC [    26 ]
    NA   [    26 ]
    NB   [    26 ]

  @DF-RHF Final Energy:  -308.28868702969817

   => Energetics <=

    Nuclear Repulsion Energy =            257.5510338561722392
    One-Electron Energy =                -931.3180973199257551
    Two-Electron Energy =                 365.4783764340553489
    Total Energy =                       -308.2886870296981670

Computation Completed


Properties will be evaluated at   0.000000,   0.000000,   0.000000 [a0]

Properties computed using the SCF density matrix


 Multipole Moments:

 ------------------------------------------------------------------------------------
     Multipole            Electronic (a.u.)      Nuclear  (a.u.)        Total (a.u.)
 ------------------------------------------------------------------------------------

 L = 1.  Multiply by 2.5417464519 to convert [e a0] to [Debye]
 Dipole X            :         -0.0404899            0.0000076           -0.0404823
 Dipole Y            :         -0.3740437            0.0000019           -0.3740419
 Dipole Z            :         -0.2149943            0.0000094           -0.2149849
 Magnitude           :                                                    0.4333182

 ------------------------------------------------------------------------------------

*** tstop() called on moses-razer at Sat Mar  1 12:19:04 2025
Module time:
	user time   =     145.61 seconds =       2.43 minutes
	system time =       3.21 seconds =       0.05 minutes
	total time  =        149 seconds =       2.48 minutes
Total time:
	user time   =     145.61 seconds =       2.43 minutes
	system time =       3.21 seconds =       0.05 minutes
	total time  =        149 seconds =       2.48 minutes

  //>>>>>>>>>>>>>>>>>>>>>>>>>>>>>>>>>>>//
  //            Monomer A HF           //
  //<<<<<<<<<<<<<<<<<<<<<<<<<<<<<<<<<<<//

   => Libint2 <=

    Primary   basis highest AM E, G, H:  5, 4, 3
    Auxiliary basis highest AM E, G, H:  6, 5, 4
    Onebody   basis highest AM E, G, H:  6, 5, 4
    Solid Harmonics ordering:            gaussian

*** tstart() called on moses-razer
*** at Sat Mar  1 12:19:04 2025

   => Loading Basis Set <=

    Name: AUG-CC-PVTZ
    Role: ORBITAL
    Keyword: BASIS
    atoms 1-2, 10-11 entry C          line   239 file /home/kchung25/anaconda3/envs/p415env/share/psi4/basis/aug-cc-pvtz.gbs 
    atoms 3, 12      entry O          line   331 file /home/kchung25/anaconda3/envs/p415env/share/psi4/basis/aug-cc-pvtz.gbs 
    atoms 4-9, 13-18 entry H          line    40 file /home/kchung25/anaconda3/envs/p415env/share/psi4/basis/aug-cc-pvtz.gbs 


         ---------------------------------------------------------
                                   SCF
               by Justin Turney, Rob Parrish, Andy Simmonett
                          and Daniel G. A. Smith
                              RHF Reference
                        1 Threads,   9536 MiB Core
         ---------------------------------------------------------

  ==> Geometry <==

    Molecular point group: c1
    Full point group: C1

    Geometry (in Angstrom), charge = 0, multiplicity = 1:

       Center              X                  Y                   Z               Mass       
    ------------   -----------------  -----------------  -----------------  -----------------
         C           -1.625807000000     1.059484000000     0.634878000000    12.000000000000
         C           -2.134810000000     0.062561000000    -0.367521000000    12.000000000000
         O           -1.503556000000    -1.178408000000    -0.117601000000    15.994914619570
         H           -1.853884000000    -1.833659000000    -0.723908000000     1.007825032230
         H           -2.131355000000     2.018747000000     0.511181000000     1.007825032230
         H           -0.552167000000     1.223174000000     0.512937000000     1.007825032230
         H           -1.811479000000     0.701238000000     1.649803000000     1.007825032230
         H           -1.916676000000     0.411376000000    -1.387910000000     1.007825032230
         H           -3.226488000000    -0.037051000000    -0.285713000000     1.007825032230
      Gh(C)           1.829110000000    -0.956948000000     0.707802000000    12.000000000000
      Gh(C)           1.684364000000    -0.165801000000    -0.565959000000    12.000000000000
      Gh(O)           1.716030000000     1.229112000000    -0.342372000000    15.994914619570
      Gh(H)           2.511858000000     1.436374000000     0.154053000000     1.007825032230
      Gh(H)           1.762317000000    -2.028976000000     0.511733000000     1.007825032230
      Gh(H)           1.036444000000    -0.694057000000     1.410849000000     1.007825032230
      Gh(H)           2.795718000000    -0.763017000000     1.184059000000     1.007825032230
      Gh(H)           0.712375000000    -0.376648000000    -1.020251000000     1.007825032230
      Gh(H)           2.456407000000    -0.458908000000    -1.292244000000     1.007825032230

  Running in c1 symmetry.

  Rotational constants: A =      0.14178  B =      0.05177  C =      0.04397 [cm^-1]
  Rotational constants: A =   4250.56229  B =   1551.88182  C =   1318.24513 [MHz]
  Nuclear repulsion =   82.166055559623445

  Charge       = 0
  Multiplicity = 1
  Electrons    = 26
  Nalpha       = 13
  Nbeta        = 13

  ==> Algorithm <==

  SCF Algorithm Type is DF.
  DIIS enabled.
  MOM disabled.
  Fractional occupation disabled.
  Guess Type is SAD.
  Energy threshold   = 1.00e-08
  Density threshold  = 1.00e-08
  Integral threshold = 1.00e-12

  ==> Primary Basis <==

  Basis Set: AUG-CC-PVTZ
    Blend: AUG-CC-PVTZ
    Number of shells: 192
    Number of basis functions: 552
    Number of Cartesian functions: 630
    Spherical Harmonics?: true
    Max angular momentum: 3

   => Loading Basis Set <=

    Name: (AUG-CC-PVTZ AUX)
    Role: JKFIT
    Keyword: DF_BASIS_SCF
    atoms 1-2, 10-11 entry C          line   162 file /home/kchung25/anaconda3/envs/p415env/share/psi4/basis/aug-cc-pvtz-jkfit.gbs 
    atoms 3, 12      entry O          line   286 file /home/kchung25/anaconda3/envs/p415env/share/psi4/basis/aug-cc-pvtz-jkfit.gbs 
    atoms 4-9, 13-18 entry H          line    70 file /home/kchung25/anaconda3/envs/p415env/share/psi4/basis/aug-cc-pvtz-jkfit.gbs 

  ==> Integral Setup <==

  ==> DiskDFJK: Density-Fitted J/K Matrices <==

    J tasked:                  Yes
    K tasked:                  Yes
    wK tasked:                  No
    OpenMP threads:              1
    Integrals threads:           1
    Memory [MiB]:             7152
    Algorithm:                Core
    Integral Cache:           LOAD
    Schwarz Cutoff:          1E-12
    Fitting Condition:       1E-10

   => Auxiliary Basis Set <=

  Basis Set: (AUG-CC-PVTZ AUX)
    Blend: AUG-CC-PVTZ-JKFIT
    Number of shells: 348
    Number of basis functions: 1176
    Number of Cartesian functions: 1446
    Spherical Harmonics?: true
    Max angular momentum: 4

  Minimum eigenvalue in the overlap matrix is 6.2766507042E-06.
  Reciprocal condition number of the overlap matrix is 3.3068747563E-07.
    Using symmetric orthogonalization.

  ==> Pre-Iterations <==

  SCF Guess: Superposition of Atomic Densities via on-the-fly atomic UHF (no occupation information).

   -------------------------
    Irrep   Nso     Nmo    
   -------------------------
     A        552     552 
   -------------------------
    Total     552     552
   -------------------------

  ==> Iterations <==

                           Total Energy        Delta E     RMS |[F,P]|

   @DF-RHF iter SAD:  -153.44326878973166   -1.53443e+02   0.00000e+00 
   @DF-RHF iter   1:  -153.99886893135954   -5.55600e-01   9.59944e-04 DIIS/ADIIS
   @DF-RHF iter   2:  -154.11085125244063   -1.11982e-01   5.34665e-04 DIIS/ADIIS
   @DF-RHF iter   3:  -154.14379629325632   -3.29450e-02   8.44963e-05 DIIS
   @DF-RHF iter   4:  -154.14539528131121   -1.59899e-03   3.24118e-05 DIIS
   @DF-RHF iter   5:  -154.14558025472897   -1.84973e-04   5.77075e-06 DIIS
   @DF-RHF iter   6:  -154.14558987816136   -9.62343e-06   1.27620e-06 DIIS
   @DF-RHF iter   7:  -154.14559043362979   -5.55468e-07   3.91542e-07 DIIS
   @DF-RHF iter   8:  -154.14559047739343   -4.37636e-08   1.05149e-07 DIIS
   @DF-RHF iter   9:  -154.14559048158719   -4.19377e-09   2.53616e-08 DIIS
   @DF-RHF iter  10:  -154.14559048185276   -2.65572e-10   4.82110e-09 DIIS
  Energy and wave function converged.


  ==> Post-Iterations <==

    Orbital Energies [Eh]
    ---------------------

    Doubly Occupied:                                                      

       1A    -20.555480     2A    -11.274034     3A    -11.211413  
       4A     -1.360629     5A     -1.014254     6A     -0.833042  
       7A     -0.702295     8A     -0.645549     9A     -0.573424  
      10A     -0.532954    11A     -0.525200    12A     -0.489221  
      13A     -0.440182  

    Virtual:                                                              

      14A      0.024643    15A      0.032982    16A      0.036545  
      17A      0.038746    18A      0.051735    19A      0.052903  
      20A      0.053751    21A      0.059168    22A      0.071798  
      23A      0.080486    24A      0.083421    25A      0.087193  
      26A      0.096121    27A      0.104360    28A      0.112594  
      29A      0.118636    30A      0.119503    31A      0.127558  
      32A      0.136730    33A      0.139947    34A      0.147545  
      35A      0.149702    36A      0.154469    37A      0.162207  
      38A      0.166053    39A      0.167779    40A      0.180674  
      41A      0.184367    42A      0.187222    43A      0.199370  
      44A      0.207403    45A      0.224584    46A      0.229050  
      47A      0.237307    48A      0.242631    49A      0.258567  
      50A      0.266684    51A      0.271989    52A      0.282700  
      53A      0.290062    54A      0.291273    55A      0.302426  
      56A      0.304149    57A      0.306802    58A      0.315352  
      59A      0.320398    60A      0.328672    61A      0.334160  
      62A      0.338980    63A      0.342078    64A      0.344674  
      65A      0.348419    66A      0.355901    67A      0.357507  
      68A      0.363225    69A      0.371417    70A      0.373214  
      71A      0.380728    72A      0.385907    73A      0.399497  
      74A      0.404826    75A      0.411893    76A      0.419018  
      77A      0.419846    78A      0.429437    79A      0.431133  
      80A      0.433545    81A      0.441340    82A      0.445051  
      83A      0.452873    84A      0.457530    85A      0.463054  
      86A      0.471793    87A      0.475945    88A      0.485000  
      89A      0.487739    90A      0.492185    91A      0.501784  
      92A      0.506544    93A      0.508945    94A      0.516121  
      95A      0.521291    96A      0.526514    97A      0.534826  
      98A      0.537324    99A      0.546374   100A      0.552678  
     101A      0.557443   102A      0.563506   103A      0.571401  
     104A      0.579813   105A      0.579983   106A      0.599951  
     107A      0.605092   108A      0.610975   109A      0.620069  
     110A      0.626790   111A      0.634589   112A      0.639994  
     113A      0.646167   114A      0.652030   115A      0.655028  
     116A      0.660356   117A      0.670093   118A      0.672241  
     119A      0.679241   120A      0.697014   121A      0.712212  
     122A      0.719669   123A      0.730635   124A      0.743128  
     125A      0.756680   126A      0.766957   127A      0.773760  
     128A      0.796834   129A      0.810756   130A      0.818469  
     131A      0.835831   132A      0.838773   133A      0.846715  
     134A      0.851042   135A      0.859532   136A      0.873886  
     137A      0.877961   138A      0.882385   139A      0.900996  
     140A      0.915272   141A      0.919889   142A      0.924087  
     143A      0.929509   144A      0.942805   145A      0.945358  
     146A      0.947507   147A      0.960252   148A      0.976063  
     149A      0.981225   150A      0.996599   151A      1.001196  
     152A      1.004255   153A      1.010229   154A      1.023798  
     155A      1.027505   156A      1.035702   157A      1.043058  
     158A      1.048244   159A      1.053953   160A      1.062973  
     161A      1.071600   162A      1.078651   163A      1.082097  
     164A      1.086237   165A      1.092444   166A      1.105225  
     167A      1.107883   168A      1.115127   169A      1.117099  
     170A      1.127711   171A      1.130419   172A      1.135815  
     173A      1.140061   174A      1.151912   175A      1.155036  
     176A      1.160214   177A      1.166705   178A      1.175450  
     179A      1.187202   180A      1.189214   181A      1.197367  
     182A      1.206746   183A      1.214191   184A      1.223918  
     185A      1.226897   186A      1.229656   187A      1.241130  
     188A      1.254447   189A      1.258611   190A      1.264895  
     191A      1.276867   192A      1.283132   193A      1.294115  
     194A      1.295529   195A      1.308646   196A      1.316113  
     197A      1.321875   198A      1.327152   199A      1.339776  
     200A      1.352874   201A      1.353845   202A      1.361224  
     203A      1.378728   204A      1.380750   205A      1.398462  
     206A      1.406858   207A      1.413092   208A      1.427056  
     209A      1.432176   210A      1.436000   211A      1.447800  
     212A      1.453532   213A      1.459670   214A      1.473289  
     215A      1.475121   216A      1.491921   217A      1.505907  
     218A      1.511773   219A      1.527639   220A      1.533319  
     221A      1.539802   222A      1.552584   223A      1.558392  
     224A      1.569250   225A      1.585510   226A      1.596681  
     227A      1.611149   228A      1.613381   229A      1.626722  
     230A      1.649634   231A      1.654276   232A      1.670702  
     233A      1.675319   234A      1.679082   235A      1.690855  
     236A      1.701984   237A      1.708474   238A      1.714488  
     239A      1.724119   240A      1.742089   241A      1.746320  
     242A      1.758826   243A      1.770441   244A      1.778217  
     245A      1.781991   246A      1.804140   247A      1.815721  
     248A      1.824912   249A      1.832964   250A      1.840558  
     251A      1.850905   252A      1.862221   253A      1.868582  
     254A      1.874474   255A      1.890928   256A      1.915232  
     257A      1.934035   258A      1.936710   259A      1.949241  
     260A      1.964185   261A      1.971614   262A      1.988475  
     263A      2.005474   264A      2.013519   265A      2.019297  
     266A      2.036018   267A      2.044529   268A      2.070318  
     269A      2.070638   270A      2.086036   271A      2.090315  
     272A      2.101961   273A      2.109935   274A      2.123740  
     275A      2.131886   276A      2.153698   277A      2.157441  
     278A      2.168417   279A      2.178807   280A      2.182289  
     281A      2.206340   282A      2.226044   283A      2.240301  
     284A      2.245762   285A      2.259519   286A      2.274565  
     287A      2.282340   288A      2.299964   289A      2.309305  
     290A      2.317311   291A      2.330334   292A      2.357157  
     293A      2.385449   294A      2.393682   295A      2.401540  
     296A      2.429299   297A      2.435704   298A      2.469573  
     299A      2.473726   300A      2.494985   301A      2.503832  
     302A      2.542957   303A      2.572501   304A      2.591558  
     305A      2.600118   306A      2.628408   307A      2.645234  
     308A      2.666768   309A      2.678424   310A      2.711468  
     311A      2.728758   312A      2.745241   313A      2.754265  
     314A      2.780603   315A      2.796849   316A      2.810978  
     317A      2.842283   318A      2.858124   319A      2.894530  
     320A      2.907984   321A      2.939143   322A      2.951351  
     323A      2.961994   324A      2.980989   325A      2.990748  
     326A      3.000749   327A      3.027153   328A      3.039621  
     329A      3.086232   330A      3.104271   331A      3.123018  
     332A      3.167356   333A      3.179931   334A      3.206966  
     335A      3.223787   336A      3.307466   337A      3.328440  
     338A      3.337678   339A      3.357847   340A      3.396238  
     341A      3.440767   342A      3.495171   343A      3.513538  
     344A      3.517055   345A      3.529741   346A      3.539921  
     347A      3.575756   348A      3.632566   349A      3.644553  
     350A      3.653751   351A      3.670422   352A      3.708175  
     353A      3.724325   354A      3.746300   355A      3.777136  
     356A      3.800269   357A      3.817517   358A      3.843365  
     359A      3.863213   360A      3.870732   361A      3.884059  
     362A      3.908863   363A      3.933687   364A      3.967898  
     365A      3.992945   366A      4.014973   367A      4.030837  
     368A      4.058103   369A      4.063964   370A      4.095511  
     371A      4.103003   372A      4.119728   373A      4.130841  
     374A      4.146529   375A      4.158468   376A      4.181853  
     377A      4.202948   378A      4.207775   379A      4.222392  
     380A      4.238319   381A      4.251396   382A      4.258222  
     383A      4.283936   384A      4.308646   385A      4.314678  
     386A      4.329705   387A      4.345752   388A      4.376492  
     389A      4.387584   390A      4.401275   391A      4.417375  
     392A      4.452782   393A      4.461771   394A      4.480402  
     395A      4.496046   396A      4.505693   397A      4.515672  
     398A      4.528031   399A      4.546519   400A      4.565089  
     401A      4.578782   402A      4.604488   403A      4.621519  
     404A      4.641032   405A      4.643786   406A      4.660211  
     407A      4.684020   408A      4.687240   409A      4.695024  
     410A      4.718822   411A      4.740442   412A      4.749155  
     413A      4.766982   414A      4.784249   415A      4.806879  
     416A      4.822465   417A      4.845613   418A      4.861432  
     419A      4.869967   420A      4.899286   421A      4.908967  
     422A      4.932849   423A      4.941777   424A      4.945937  
     425A      4.955172   426A      4.987912   427A      5.002443  
     428A      5.033758   429A      5.048978   430A      5.055180  
     431A      5.063207   432A      5.072838   433A      5.085578  
     434A      5.112143   435A      5.138838   436A      5.150402  
     437A      5.162834   438A      5.178414   439A      5.192840  
     440A      5.238177   441A      5.245978   442A      5.256286  
     443A      5.285378   444A      5.305059   445A      5.320282  
     446A      5.345677   447A      5.358839   448A      5.360650  
     449A      5.380349   450A      5.395139   451A      5.417604  
     452A      5.428253   453A      5.453412   454A      5.467548  
     455A      5.486687   456A      5.523890   457A      5.531772  
     458A      5.550604   459A      5.556934   460A      5.584493  
     461A      5.591837   462A      5.601866   463A      5.614699  
     464A      5.635843   465A      5.675748   466A      5.690263  
     467A      5.721793   468A      5.735854   469A      5.755083  
     470A      5.769300   471A      5.796830   472A      5.806511  
     473A      5.820431   474A      5.832072   475A      5.861119  
     476A      5.871399   477A      5.909249   478A      6.006238  
     479A      6.034459   480A      6.051069   481A      6.067976  
     482A      6.077474   483A      6.146039   484A      6.170069  
     485A      6.178573   486A      6.205719   487A      6.220453  
     488A      6.236283   489A      6.311762   490A      6.336041  
     491A      6.343269   492A      6.381920   493A      6.436408  
     494A      6.501073   495A      6.574769   496A      6.730323  
     497A      6.748889   498A      6.808668   499A      6.869422  
     500A      6.878381   501A      6.891002   502A      6.984554  
     503A      6.990019   504A      7.031580   505A      7.048907  
     506A      7.090090   507A      7.175731   508A      7.179460  
     509A      7.219158   510A      7.355236   511A      7.403364  
     512A      7.406003   513A      7.553541   514A      7.557296  
     515A      7.653420   516A      7.801143   517A      7.843865  
     518A      7.859521   519A      7.874508   520A      7.891606  
     521A      7.942605   522A      7.956104   523A      7.987761  
     524A      8.064565   525A      8.165604   526A      8.181154  
     527A      8.287711   528A      8.313440   529A      8.324804  
     530A      8.391241   531A      8.436442   532A      8.600234  
     533A      8.686443   534A      8.933880   535A      9.035780  
     536A     10.014480   537A     10.130996   538A     10.263986  
     539A     10.412220   540A     10.689626   541A     10.758396  
     542A     11.078121   543A     12.088705   544A     12.432931  
     545A     13.317551   546A     14.121434   547A     16.281451  
     548A     18.173610   549A     18.815223   550A     53.136499  
     551A     54.538584   552A     66.895697  

    Final Occupation by Irrep:
              A 
    DOCC [    13 ]
    NA   [    13 ]
    NB   [    13 ]

  @DF-RHF Final Energy:  -154.14559048185276

   => Energetics <=

    Nuclear Repulsion Energy =             82.1660555596234445
    One-Electron Energy =                -372.3079361295117451
    Two-Electron Energy =                 135.9962900880355505
    Total Energy =                       -154.1455904818527642

Computation Completed


Properties will be evaluated at   0.000000,   0.000000,   0.000000 [a0]

Properties computed using the SCF density matrix


 Multipole Moments:

 ------------------------------------------------------------------------------------
     Multipole            Electronic (a.u.)      Nuclear  (a.u.)        Total (a.u.)
 ------------------------------------------------------------------------------------

 L = 1.  Multiply by 2.5417464519 to convert [e a0] to [Debye]
 Dipole X            :         86.6193993          -87.0865148           -0.4671155
 Dipole Y            :          0.5275207           -0.3990516            0.1284691
 Dipole Z            :         -2.2282807            1.7758210           -0.4524597
 Magnitude           :                                                    0.6628883

 ------------------------------------------------------------------------------------

*** tstop() called on moses-razer at Sat Mar  1 12:20:44 2025
Module time:
	user time   =      98.46 seconds =       1.64 minutes
	system time =       1.38 seconds =       0.02 minutes
	total time  =        100 seconds =       1.67 minutes
Total time:
	user time   =     244.07 seconds =       4.07 minutes
	system time =       4.59 seconds =       0.08 minutes
	total time  =        249 seconds =       4.15 minutes

  //>>>>>>>>>>>>>>>>>>>>>>>>>>>>>>>>>>>//
  //            Monomer B HF           //
  //<<<<<<<<<<<<<<<<<<<<<<<<<<<<<<<<<<<//

   => Libint2 <=

    Primary   basis highest AM E, G, H:  5, 4, 3
    Auxiliary basis highest AM E, G, H:  6, 5, 4
    Onebody   basis highest AM E, G, H:  6, 5, 4
    Solid Harmonics ordering:            gaussian

*** tstart() called on moses-razer
*** at Sat Mar  1 12:20:44 2025

   => Loading Basis Set <=

    Name: AUG-CC-PVTZ
    Role: ORBITAL
    Keyword: BASIS
    atoms 1-2, 10-11 entry C          line   239 file /home/kchung25/anaconda3/envs/p415env/share/psi4/basis/aug-cc-pvtz.gbs 
    atoms 3, 12      entry O          line   331 file /home/kchung25/anaconda3/envs/p415env/share/psi4/basis/aug-cc-pvtz.gbs 
    atoms 4-9, 13-18 entry H          line    40 file /home/kchung25/anaconda3/envs/p415env/share/psi4/basis/aug-cc-pvtz.gbs 


         ---------------------------------------------------------
                                   SCF
               by Justin Turney, Rob Parrish, Andy Simmonett
                          and Daniel G. A. Smith
                              RHF Reference
                        1 Threads,   9536 MiB Core
         ---------------------------------------------------------

  ==> Geometry <==

    Molecular point group: c1
    Full point group: C1

    Geometry (in Angstrom), charge = 0, multiplicity = 1:

       Center              X                  Y                   Z               Mass       
    ------------   -----------------  -----------------  -----------------  -----------------
      Gh(C)          -1.625807000000     1.059484000000     0.634878000000    12.000000000000
      Gh(C)          -2.134810000000     0.062561000000    -0.367521000000    12.000000000000
      Gh(O)          -1.503556000000    -1.178408000000    -0.117601000000    15.994914619570
      Gh(H)          -1.853884000000    -1.833659000000    -0.723908000000     1.007825032230
      Gh(H)          -2.131355000000     2.018747000000     0.511181000000     1.007825032230
      Gh(H)          -0.552167000000     1.223174000000     0.512937000000     1.007825032230
      Gh(H)          -1.811479000000     0.701238000000     1.649803000000     1.007825032230
      Gh(H)          -1.916676000000     0.411376000000    -1.387910000000     1.007825032230
      Gh(H)          -3.226488000000    -0.037051000000    -0.285713000000     1.007825032230
         C            1.829110000000    -0.956948000000     0.707802000000    12.000000000000
         C            1.684364000000    -0.165801000000    -0.565959000000    12.000000000000
         O            1.716030000000     1.229112000000    -0.342372000000    15.994914619570
         H            2.511858000000     1.436374000000     0.154053000000     1.007825032230
         H            1.762317000000    -2.028976000000     0.511733000000     1.007825032230
         H            1.036444000000    -0.694057000000     1.410849000000     1.007825032230
         H            2.795718000000    -0.763017000000     1.184059000000     1.007825032230
         H            0.712375000000    -0.376648000000    -1.020251000000     1.007825032230
         H            2.456407000000    -0.458908000000    -1.292244000000     1.007825032230

  Running in c1 symmetry.

  Rotational constants: A =      0.14178  B =      0.05177  C =      0.04397 [cm^-1]
  Rotational constants: A =   4250.56229  B =   1551.88182  C =   1318.24513 [MHz]
  Nuclear repulsion =   82.139980859658607

  Charge       = 0
  Multiplicity = 1
  Electrons    = 26
  Nalpha       = 13
  Nbeta        = 13

  ==> Algorithm <==

  SCF Algorithm Type is DF.
  DIIS enabled.
  MOM disabled.
  Fractional occupation disabled.
  Guess Type is SAD.
  Energy threshold   = 1.00e-08
  Density threshold  = 1.00e-08
  Integral threshold = 1.00e-12

  ==> Primary Basis <==

  Basis Set: AUG-CC-PVTZ
    Blend: AUG-CC-PVTZ
    Number of shells: 192
    Number of basis functions: 552
    Number of Cartesian functions: 630
    Spherical Harmonics?: true
    Max angular momentum: 3

   => Loading Basis Set <=

    Name: (AUG-CC-PVTZ AUX)
    Role: JKFIT
    Keyword: DF_BASIS_SCF
    atoms 1-2, 10-11 entry C          line   162 file /home/kchung25/anaconda3/envs/p415env/share/psi4/basis/aug-cc-pvtz-jkfit.gbs 
    atoms 3, 12      entry O          line   286 file /home/kchung25/anaconda3/envs/p415env/share/psi4/basis/aug-cc-pvtz-jkfit.gbs 
    atoms 4-9, 13-18 entry H          line    70 file /home/kchung25/anaconda3/envs/p415env/share/psi4/basis/aug-cc-pvtz-jkfit.gbs 

  ==> Integral Setup <==

  ==> DiskDFJK: Density-Fitted J/K Matrices <==

    J tasked:                  Yes
    K tasked:                  Yes
    wK tasked:                  No
    OpenMP threads:              1
    Integrals threads:           1
    Memory [MiB]:             7152
    Algorithm:                Core
    Integral Cache:           LOAD
    Schwarz Cutoff:          1E-12
    Fitting Condition:       1E-10

   => Auxiliary Basis Set <=

  Basis Set: (AUG-CC-PVTZ AUX)
    Blend: AUG-CC-PVTZ-JKFIT
    Number of shells: 348
    Number of basis functions: 1176
    Number of Cartesian functions: 1446
    Spherical Harmonics?: true
    Max angular momentum: 4

  Minimum eigenvalue in the overlap matrix is 6.2766507041E-06.
  Reciprocal condition number of the overlap matrix is 3.3068747562E-07.
    Using symmetric orthogonalization.

  ==> Pre-Iterations <==

  SCF Guess: Superposition of Atomic Densities via on-the-fly atomic UHF (no occupation information).

   -------------------------
    Irrep   Nso     Nmo    
   -------------------------
     A        552     552 
   -------------------------
    Total     552     552
   -------------------------

  ==> Iterations <==

                           Total Energy        Delta E     RMS |[F,P]|

   @DF-RHF iter SAD:  -153.45560402773285   -1.53456e+02   0.00000e+00 
   @DF-RHF iter   1:  -154.00361374668483   -5.48010e-01   9.36946e-04 DIIS/ADIIS
   @DF-RHF iter   2:  -154.11540592168279   -1.11792e-01   4.94688e-04 DIIS/ADIIS
   @DF-RHF iter   3:  -154.14323769687803   -2.78318e-02   8.39103e-05 DIIS
   @DF-RHF iter   4:  -154.14481371641529   -1.57602e-03   3.21097e-05 DIIS
   @DF-RHF iter   5:  -154.14500009461221   -1.86378e-04   6.21724e-06 DIIS
   @DF-RHF iter   6:  -154.14501035269345   -1.02581e-05   1.42472e-06 DIIS
   @DF-RHF iter   7:  -154.14501108909963   -7.36406e-07   4.04280e-07 DIIS
   @DF-RHF iter   8:  -154.14501114420591   -5.51063e-08   1.28568e-07 DIIS
   @DF-RHF iter   9:  -154.14501115037416   -6.16825e-09   3.31010e-08 DIIS
   @DF-RHF iter  10:  -154.14501115080668   -4.32522e-10   6.26787e-09 DIIS
  Energy and wave function converged.


  ==> Post-Iterations <==

    Orbital Energies [Eh]
    ---------------------

    Doubly Occupied:                                                      

       1A    -20.555143     2A    -11.273604     3A    -11.218982  
       4A     -1.360918     5A     -1.015416     6A     -0.848354  
       7A     -0.684993     8A     -0.625636     9A     -0.615303  
      10A     -0.543076    11A     -0.526078    12A     -0.481910  
      13A     -0.443099  

    Virtual:                                                              

      14A      0.023634    15A      0.032120    16A      0.036003  
      17A      0.038792    18A      0.050207    19A      0.053183  
      20A      0.054008    21A      0.059180    22A      0.071526  
      23A      0.081522    24A      0.084084    25A      0.088771  
      26A      0.092554    27A      0.104392    28A      0.113526  
      29A      0.117135    30A      0.120794    31A      0.123180  
      32A      0.132268    33A      0.141234    34A      0.145919  
      35A      0.148638    36A      0.154150    37A      0.161635  
      38A      0.164183    39A      0.167430    40A      0.175653  
      41A      0.186689    42A      0.189941    43A      0.202398  
      44A      0.212493    45A      0.216490    46A      0.228802  
      47A      0.238285    48A      0.243202    49A      0.247719  
      50A      0.264132    51A      0.276152    52A      0.279540  
      53A      0.283223    54A      0.294220    55A      0.297055  
      56A      0.304094    57A      0.310896    58A      0.313873  
      59A      0.316798    60A      0.324202    61A      0.329719  
      62A      0.331367    63A      0.339413    64A      0.344255  
      65A      0.346693    66A      0.349713    67A      0.360348  
      68A      0.367527    69A      0.369053    70A      0.377679  
      71A      0.381831    72A      0.392140    73A      0.399524  
      74A      0.401215    75A      0.405720    76A      0.413469  
      77A      0.416997    78A      0.425028    79A      0.426138  
      80A      0.433927    81A      0.443231    82A      0.444874  
      83A      0.451062    84A      0.458524    85A      0.462674  
      86A      0.469824    87A      0.471130    88A      0.475731  
      89A      0.478233    90A      0.489250    91A      0.494826  
      92A      0.496946    93A      0.505572    94A      0.509281  
      95A      0.518491    96A      0.520321    97A      0.528901  
      98A      0.537400    99A      0.542254   100A      0.553223  
     101A      0.560937   102A      0.567525   103A      0.573956  
     104A      0.578106   105A      0.586535   106A      0.599350  
     107A      0.608654   108A      0.618620   109A      0.619829  
     110A      0.625327   111A      0.637179   112A      0.642138  
     113A      0.647811   114A      0.652153   115A      0.657977  
     116A      0.662403   117A      0.669233   118A      0.680941  
     119A      0.683459   120A      0.694714   121A      0.700623  
     122A      0.716723   123A      0.718136   124A      0.735904  
     125A      0.746392   126A      0.763850   127A      0.772695  
     128A      0.789991   129A      0.803470   130A      0.817061  
     131A      0.823557   132A      0.831956   133A      0.845284  
     134A      0.848695   135A      0.849880   136A      0.857785  
     137A      0.873798   138A      0.881287   139A      0.894841  
     140A      0.900113   141A      0.906389   142A      0.924493  
     143A      0.930848   144A      0.933643   145A      0.944694  
     146A      0.958540   147A      0.964797   148A      0.976159  
     149A      0.978113   150A      0.986665   151A      0.989122  
     152A      1.001441   153A      1.011891   154A      1.016841  
     155A      1.024476   156A      1.033707   157A      1.036579  
     158A      1.045206   159A      1.046709   160A      1.062425  
     161A      1.063498   162A      1.070999   163A      1.078693  
     164A      1.082077   165A      1.087173   166A      1.092901  
     167A      1.107192   168A      1.111374   169A      1.116701  
     170A      1.125543   171A      1.128415   172A      1.134832  
     173A      1.144793   174A      1.151800   175A      1.160686  
     176A      1.166276   177A      1.171059   178A      1.174953  
     179A      1.179825   180A      1.191761   181A      1.199013  
     182A      1.214249   183A      1.217006   184A      1.223516  
     185A      1.229121   186A      1.242182   187A      1.245932  
     188A      1.250342   189A      1.257880   190A      1.266495  
     191A      1.271560   192A      1.290647   193A      1.292964  
     194A      1.298981   195A      1.309281   196A      1.315402  
     197A      1.325653   198A      1.328537   199A      1.342914  
     200A      1.351788   201A      1.356684   202A      1.361349  
     203A      1.375640   204A      1.377523   205A      1.386096  
     206A      1.395615   207A      1.404190   208A      1.409667  
     209A      1.426846   210A      1.428398   211A      1.436667  
     212A      1.448056   213A      1.449998   214A      1.468960  
     215A      1.482851   216A      1.486293   217A      1.501851  
     218A      1.504640   219A      1.515596   220A      1.522976  
     221A      1.525906   222A      1.535272   223A      1.555553  
     224A      1.564793   225A      1.586266   226A      1.591207  
     227A      1.603345   228A      1.606429   229A      1.610411  
     230A      1.619425   231A      1.640160   232A      1.650259  
     233A      1.659851   234A      1.679366   235A      1.691418  
     236A      1.693134   237A      1.706116   238A      1.716090  
     239A      1.730403   240A      1.736157   241A      1.744297  
     242A      1.760391   243A      1.776890   244A      1.781720  
     245A      1.792880   246A      1.796715   247A      1.810245  
     248A      1.814253   249A      1.837214   250A      1.846269  
     251A      1.848558   252A      1.852238   253A      1.874654  
     254A      1.880015   255A      1.906877   256A      1.912576  
     257A      1.915466   258A      1.932609   259A      1.939355  
     260A      1.955529   261A      1.959392   262A      1.977770  
     263A      1.981476   264A      1.998327   265A      2.009756  
     266A      2.028766   267A      2.034061   268A      2.048256  
     269A      2.061158   270A      2.078154   271A      2.084547  
     272A      2.093496   273A      2.112084   274A      2.121174  
     275A      2.137313   276A      2.149019   277A      2.154935  
     278A      2.173401   279A      2.189371   280A      2.206487  
     281A      2.216541   282A      2.225356   283A      2.233306  
     284A      2.245704   285A      2.258014   286A      2.269071  
     287A      2.285211   288A      2.296024   289A      2.310861  
     290A      2.317660   291A      2.333916   292A      2.359366  
     293A      2.371619   294A      2.391134   295A      2.399498  
     296A      2.418163   297A      2.443992   298A      2.450996  
     299A      2.474190   300A      2.492189   301A      2.514870  
     302A      2.549178   303A      2.551179   304A      2.577638  
     305A      2.603471   306A      2.608188   307A      2.635763  
     308A      2.680126   309A      2.688030   310A      2.708287  
     311A      2.728776   312A      2.746388   313A      2.764008  
     314A      2.778118   315A      2.796612   316A      2.810866  
     317A      2.824090   318A      2.837429   319A      2.860692  
     320A      2.890334   321A      2.901741   322A      2.903991  
     323A      2.953295   324A      2.963735   325A      2.989527  
     326A      3.024972   327A      3.055891   328A      3.068271  
     329A      3.097037   330A      3.112503   331A      3.135230  
     332A      3.155774   333A      3.195456   334A      3.213142  
     335A      3.243946   336A      3.256456   337A      3.275475  
     338A      3.343247   339A      3.366348   340A      3.394495  
     341A      3.440023   342A      3.455993   343A      3.497864  
     344A      3.526996   345A      3.536696   346A      3.569239  
     347A      3.588241   348A      3.592947   349A      3.611726  
     350A      3.645380   351A      3.685693   352A      3.706837  
     353A      3.722344   354A      3.744581   355A      3.763405  
     356A      3.784022   357A      3.811254   358A      3.821261  
     359A      3.830624   360A      3.872463   361A      3.914250  
     362A      3.927462   363A      3.958390   364A      3.964642  
     365A      3.982871   366A      4.008281   367A      4.022308  
     368A      4.031406   369A      4.046069   370A      4.059547  
     371A      4.068809   372A      4.122086   373A      4.133401  
     374A      4.156547   375A      4.161611   376A      4.177565  
     377A      4.183818   378A      4.189486   379A      4.218061  
     380A      4.230873   381A      4.241064   382A      4.251336  
     383A      4.257556   384A      4.292195   385A      4.314983  
     386A      4.321637   387A      4.346190   388A      4.356507  
     389A      4.373641   390A      4.402340   391A      4.420260  
     392A      4.450835   393A      4.461444   394A      4.489902  
     395A      4.496278   396A      4.503004   397A      4.525987  
     398A      4.548709   399A      4.563349   400A      4.581081  
     401A      4.597652   402A      4.604654   403A      4.620087  
     404A      4.629464   405A      4.646654   406A      4.667955  
     407A      4.674511   408A      4.685638   409A      4.715851  
     410A      4.721839   411A      4.746802   412A      4.751081  
     413A      4.771466   414A      4.775100   415A      4.819011  
     416A      4.841904   417A      4.856478   418A      4.860214  
     419A      4.867295   420A      4.888911   421A      4.901302  
     422A      4.918497   423A      4.924390   424A      4.942453  
     425A      4.946636   426A      4.960567   427A      4.997962  
     428A      5.001749   429A      5.004740   430A      5.034430  
     431A      5.048464   432A      5.060297   433A      5.082920  
     434A      5.106596   435A      5.114126   436A      5.126961  
     437A      5.148535   438A      5.166329   439A      5.182871  
     440A      5.198895   441A      5.212339   442A      5.242871  
     443A      5.247009   444A      5.264169   445A      5.287072  
     446A      5.314599   447A      5.336648   448A      5.374357  
     449A      5.388145   450A      5.403217   451A      5.419350  
     452A      5.435037   453A      5.449918   454A      5.458911  
     455A      5.487804   456A      5.540727   457A      5.544791  
     458A      5.553873   459A      5.578905   460A      5.584524  
     461A      5.594180   462A      5.609776   463A      5.625023  
     464A      5.649634   465A      5.662357   466A      5.683344  
     467A      5.708333   468A      5.729604   469A      5.732061  
     470A      5.752631   471A      5.763938   472A      5.790818  
     473A      5.807230   474A      5.867319   475A      5.882262  
     476A      5.909900   477A      5.968461   478A      5.977413  
     479A      6.023491   480A      6.030489   481A      6.101257  
     482A      6.106466   483A      6.122876   484A      6.157918  
     485A      6.197790   486A      6.235528   487A      6.244977  
     488A      6.261239   489A      6.279730   490A      6.310863  
     491A      6.312390   492A      6.349941   493A      6.441200  
     494A      6.485832   495A      6.575341   496A      6.708695  
     497A      6.798107   498A      6.826636   499A      6.844149  
     500A      6.881205   501A      6.900813   502A      6.958899  
     503A      6.996518   504A      7.033753   505A      7.041660  
     506A      7.131246   507A      7.166009   508A      7.206041  
     509A      7.261240   510A      7.330543   511A      7.378415  
     512A      7.411020   513A      7.514140   514A      7.536889  
     515A      7.675841   516A      7.774193   517A      7.856273  
     518A      7.866984   519A      7.886486   520A      7.892259  
     521A      7.912239   522A      7.955879   523A      7.977177  
     524A      8.007105   525A      8.165641   526A      8.175947  
     527A      8.207626   528A      8.285550   529A      8.334601  
     530A      8.413423   531A      8.421985   532A      8.614341  
     533A      8.676309   534A      8.912339   535A      9.095237  
     536A      9.984244   537A     10.144619   538A     10.383755  
     539A     10.405791   540A     10.495301   541A     10.827141  
     542A     11.094005   543A     12.037340   544A     12.478543  
     545A     13.296793   546A     14.153963   547A     16.364947  
     548A     17.903051   549A     18.722728   550A     53.352839  
     551A     55.004850   552A     66.709202  

    Final Occupation by Irrep:
              A 
    DOCC [    13 ]
    NA   [    13 ]
    NB   [    13 ]

  @DF-RHF Final Energy:  -154.14501115080668

   => Energetics <=

    Nuclear Repulsion Energy =             82.1399808596586070
    One-Electron Energy =                -372.1849600298554606
    Two-Electron Energy =                 135.8999680193901440
    Total Energy =                       -154.1450111508066811

Computation Completed


Properties will be evaluated at   0.000000,   0.000000,   0.000000 [a0]

Properties computed using the SCF density matrix


 Multipole Moments:

 ------------------------------------------------------------------------------------
     Multipole            Electronic (a.u.)      Nuclear  (a.u.)        Total (a.u.)
 ------------------------------------------------------------------------------------

 L = 1.  Multiply by 2.5417464519 to convert [e a0] to [Debye]
 Dipole X            :        -86.6392243           87.0865224            0.4472981
 Dipole Y            :         -0.9092156            0.3990535           -0.5101621
 Dipole Z            :          2.0146627           -1.7758115            0.2388511
 Magnitude           :                                                    0.7192988

 ------------------------------------------------------------------------------------

*** tstop() called on moses-razer at Sat Mar  1 12:22:24 2025
Module time:
	user time   =      98.45 seconds =       1.64 minutes
	system time =       1.47 seconds =       0.02 minutes
	total time  =        100 seconds =       1.67 minutes
Total time:
	user time   =     342.53 seconds =       5.71 minutes
	system time =       6.06 seconds =       0.10 minutes
	total time  =        349 seconds =       5.82 minutes
  Constructing Basis Sets for SAPT...

   => Loading Basis Set <=

    Name: (AUG-CC-PVTZ AUX)
    Role: RIFIT
    Keyword: DF_BASIS_SAPT
    atoms 1-2, 10-11 entry C          line   148 file /home/kchung25/anaconda3/envs/p415env/share/psi4/basis/aug-cc-pvtz-ri.gbs 
    atoms 3, 12      entry O          line   264 file /home/kchung25/anaconda3/envs/p415env/share/psi4/basis/aug-cc-pvtz-ri.gbs 
    atoms 4-9, 13-18 entry H          line    30 file /home/kchung25/anaconda3/envs/p415env/share/psi4/basis/aug-cc-pvtz-ri.gbs 

   => Loading Basis Set <=

    Name: (AUG-CC-PVTZ AUX)
    Role: JKFIT
    Keyword: DF_BASIS_ELST
    atoms 1-2, 10-11 entry C          line   162 file /home/kchung25/anaconda3/envs/p415env/share/psi4/basis/aug-cc-pvtz-jkfit.gbs 
    atoms 3, 12      entry O          line   286 file /home/kchung25/anaconda3/envs/p415env/share/psi4/basis/aug-cc-pvtz-jkfit.gbs 
    atoms 4-9, 13-18 entry H          line    70 file /home/kchung25/anaconda3/envs/p415env/share/psi4/basis/aug-cc-pvtz-jkfit.gbs 


  //>>>>>>>>>>>>>>>>>>>>>>>>>>>>>>>>>>>//
  //               SAPT2+              //
  //<<<<<<<<<<<<<<<<<<<<<<<<<<<<<<<<<<<//


*** tstart() called on moses-razer
*** at Sat Mar  1 12:22:24 2025

        SAPT2+  
    Ed Hohenstein
     6 June 2009

      Orbital Information
  --------------------------
    NSO        =       552
    NMO        =       552
    NRI        =      1188
    NOCC A     =        13
    NOCC B     =        13
    FOCC A     =         0
    FOCC B     =         0
    NVIR A     =       539
    NVIR B     =       539

    Estimated memory usage: 3939.5 MB

    Natural Orbital Cutoff:   1.000E-06
    Disp(T3) Truncation:            Yes
    CCD (vv|vv) Truncation:         Yes
    MBPT T2 Truncation:             Yes

    Monomer A: 307 virtual orbitals dropped
    Monomer B: 306 virtual orbitals dropped

    Elst10,r            =    -0.005113082989 [Eh]
    Exch10 (S^2)        =     0.008482149863 [Eh]
    Exch10              =     0.008508020305 [Eh]
    Ind20,r (A<-B)      =    -0.001557324989 [Eh]
    Ind20,r (B<-A)      =    -0.001116948860 [Eh]
    Ind20,r             =    -0.002674273849 [Eh]
    Exch-Ind20,r (A<-B) =     0.001177537553 [Eh]
    Exch-Ind20,r (B<-A) =     0.000679076278 [Eh]
    Exch-Ind20,r        =     0.001856613831 [Eh]
    Disp20              =    -0.007721350937 [Eh]
    Disp20 (NO)         =    -0.006841212423 [Eh]
    Exch-Disp20         =     0.000920089248 [Eh]
    Elst12,r            =    -0.000640488211 [Eh]
    Exch11              =     0.000057617457 [Eh]
    Exch12              =     0.001260370443 [Eh]
    Ind22               =    -0.000345887620 [Eh]
    Disp21              =     0.000515559876 [Eh]
    Disp22 (SDQ)        =     0.000098796013 [Eh]

    (i =   1 of  13)        250 seconds
    (i =   2 of  13)        496 seconds
    (i =   3 of  13)        735 seconds
    (i =   4 of  13)        974 seconds
    (i =   5 of  13)       1326 seconds
    (i =   6 of  13)       1789 seconds
    (i =   7 of  13)       2249 seconds
    (i =   8 of  13)       2709 seconds
    (i =   9 of  13)       3169 seconds
    (i =  10 of  13)       3629 seconds
    (i =  11 of  13)       4011 seconds
    (i =  12 of  13)       4310 seconds
    (i =  13 of  13)       4543 seconds

    Disp220 (T)         =    -0.000551843201 [Eh]

    (i =   1 of  13)        246 seconds
    (i =   2 of  13)        484 seconds
    (i =   3 of  13)        726 seconds
    (i =   4 of  13)        969 seconds
    (i =   5 of  13)       1211 seconds
    (i =   6 of  13)       1498 seconds
    (i =   7 of  13)       1737 seconds
    (i =   8 of  13)       1975 seconds
    (i =   9 of  13)       2215 seconds
    (i =  10 of  13)       2452 seconds
    (i =  11 of  13)       2689 seconds
    (i =  12 of  13)       2926 seconds
    (i =  13 of  13)       3164 seconds

    Disp202 (T)         =    -0.000531297233 [Eh]

    Disp22 (T)          =    -0.001083140435 [Eh]

    Est. Disp220 (T)    =    -0.000622839163 [Eh]
    Est. Disp202 (T)    =    -0.000599649907 [Eh]

    Est. Disp22 (T)     =    -0.001222489070 [Eh]

    SAPT Results 
  --------------------------------------------------------------------------------------------------------
    Electrostatics                 -5.75357120 [mEh]      -3.61042044 [kcal/mol]     -15.10599910 [kJ/mol]
      Elst10,r                     -5.11308299 [mEh]      -3.20850802 [kcal/mol]     -13.42439754 [kJ/mol]
      Elst12,r                     -0.64048821 [mEh]      -0.40191242 [kcal/mol]      -1.68160157 [kJ/mol]

    Exchange                        9.82600820 [mEh]       6.16591324 [kcal/mol]      25.79818099 [kJ/mol]
      Exch10                        8.50802031 [mEh]       5.33886334 [kcal/mol]      22.33780423 [kJ/mol]
      Exch10(S^2)                   8.48214986 [mEh]       5.32262940 [kcal/mol]      22.26988140 [kJ/mol]
      Exch11(S^2)                   0.05761746 [mEh]       0.03615550 [kcal/mol]       0.15127461 [kJ/mol]
      Exch12(S^2)                   1.26037044 [mEh]       0.79089439 [kcal/mol]       3.30910214 [kJ/mol]

    Induction                      -1.58608960 [mEh]      -0.99528625 [kcal/mol]      -4.16427766 [kJ/mol]
      Ind20,r                      -2.67427385 [mEh]      -1.67813218 [kcal/mol]      -7.02130502 [kJ/mol]
      Ind22                        -0.34588762 [mEh]      -0.21704776 [kcal/mol]      -0.90812782 [kJ/mol]
      Exch-Ind20,r                  1.85661383 [mEh]       1.16504277 [kcal/mol]       4.87453894 [kJ/mol]
      Exch-Ind22                    0.24013238 [mEh]       0.15068534 [kcal/mol]       0.63046747 [kJ/mol]
      delta HF,r (2)               -0.66267434 [mEh]      -0.41583443 [kcal/mol]      -1.73985123 [kJ/mol]

    Dispersion                     -7.40939487 [mEh]      -4.64946548 [kcal/mol]     -19.45336355 [kJ/mol]
      Disp20                       -7.72135094 [mEh]      -4.84522086 [kcal/mol]     -20.27240409 [kJ/mol]
      Disp21                        0.51555988 [mEh]       0.32351871 [kcal/mol]       1.35360227 [kJ/mol]
      Disp22 (SDQ)                  0.09879601 [mEh]       0.06199543 [kcal/mol]       0.25938890 [kJ/mol]
      Disp22 (T)                   -1.08314043 [mEh]      -0.67968088 [kcal/mol]      -2.84378482 [kJ/mol]
      Est. Disp22 (T)              -1.22248907 [mEh]      -0.76712347 [kcal/mol]      -3.20964461 [kJ/mol]
      Exch-Disp20                   0.92008925 [mEh]       0.57736472 [kcal/mol]       2.41569399 [kJ/mol]

  Total HF                          1.91460296 [mEh]       1.20143150 [kcal/mol]       5.02678938 [kJ/mol]
  Total SAPT0                      -4.88665873 [mEh]      -3.06642465 [kcal/mol]     -12.82992072 [kJ/mol]
  Total SAPT2                      -4.31491428 [mEh]      -2.70764959 [kcal/mol]     -11.32880588 [kJ/mol]
  Total SAPT2+                     -4.92304746 [mEh]      -3.08925892 [kcal/mol]     -12.92545933 [kJ/mol]

  Special recipe for scaled SAPT0 (see Manual):
    Electrostatics sSAPT0          -5.11308299 [mEh]      -3.20850802 [kcal/mol]     -13.42439754 [kJ/mol]
    Exchange sSAPT0                 8.50802031 [mEh]       5.33886334 [kcal/mol]      22.33780423 [kJ/mol]
    Induction sSAPT0               -1.46329455 [mEh]      -0.91823119 [kcal/mol]      -3.84187931 [kJ/mol]
    Dispersion sSAPT0              -6.79281721 [mEh]      -4.26255715 [kcal/mol]     -17.83453912 [kJ/mol]
  Total sSAPT0                     -4.86117444 [mEh]      -3.05043301 [kcal/mol]     -12.76301173 [kJ/mol]
  --------------------------------------------------------------------------------------------------------

*** tstop() called on moses-razer at Sat Mar  1 15:04:24 2025
Module time:
	user time   =    9577.07 seconds =     159.62 minutes
	system time =     123.12 seconds =       2.05 minutes
	total time  =       9720 seconds =     162.00 minutes
Total time:
	user time   =    9919.80 seconds =     165.33 minutes
	system time =     129.18 seconds =       2.15 minutes
	total time  =      10069 seconds =     167.82 minutes

    Psi4 stopped on: Saturday, 01 March 2025 03:04PM
    Psi4 wall time for execution: 2:47:50.62

*** Psi4 exiting successfully. Buy a developer a beer!
