
    -----------------------------------------------------------------------
          Psi4: An Open-Source Ab Initio Electronic Structure Package
                               Psi4 1.9 release

                         Git: Rev {} zzzzzzz 


    D. G. A. Smith, L. A. Burns, A. C. Simmonett, R. M. Parrish,
    M. C. Schieber, R. Galvelis, P. Kraus, H. Kruse, R. Di Remigio,
    A. Alenaizan, A. M. James, S. Lehtola, J. P. Misiewicz, M. Scheurer,
    R. A. Shaw, J. B. Schriber, Y. Xie, Z. L. Glick, D. A. Sirianni,
    J. S. O'Brien, J. M. Waldrop, A. Kumar, E. G. Hohenstein,
    B. P. Pritchard, B. R. Brooks, H. F. Schaefer III, A. Yu. Sokolov,
    K. Patkowski, A. E. DePrince III, U. Bozkaya, R. A. King,
    F. A. Evangelista, J. M. Turney, T. D. Crawford, C. D. Sherrill,
    J. Chem. Phys. 152(18) 184108 (2020). https://doi.org/10.1063/5.0006002

                            Additional Code Authors
    E. T. Seidl, C. L. Janssen, E. F. Valeev, M. L. Leininger,
    J. F. Gonthier, R. M. Richard, H. R. McAlexander, M. Saitow, X. Wang,
    P. Verma, M. H. Lechner, A. Jiang, S. Behnle, A. G. Heide,
    M. F. Herbst, and D. L. Poole

             Previous Authors, Complete List of Code Contributors,
                       and Citations for Specific Modules
    https://github.com/psi4/psi4/blob/master/codemeta.json
    https://github.com/psi4/psi4/graphs/contributors
    http://psicode.org/psi4manual/master/introduction.html#citing-psifour

    -----------------------------------------------------------------------


    Psi4 started on: Sunday, 02 March 2025 09:35AM

    Process ID: 213065
    Host:       moses-razer
    PSIDATADIR: /home/kchung25/anaconda3/envs/psi4_19/share/psi4
    Memory:     500.0 MiB
    Threads:    1
    
  ==> Input File <==

--------------------------------------------------------------------------
MEMORY 10 GB

molecule dimer {
0 1
C   -1.309712  -0.853776   0.863334
C   -1.701819  -0.227589  -0.444987
O   -2.876766   0.525994  -0.229083
H   -3.094015   0.998003  -1.034725
H   -0.412837  -1.466231   0.745249
H   -2.112986  -1.486037   1.246490
H   -1.103432  -0.080066   1.606280
H   -1.872359  -1.011301  -1.198893
H   -0.881844   0.407298  -0.806420
--
0 1
C    2.279357  -0.789068  -0.713279
C    2.149938   0.140264   0.460358
O    1.374803   1.246626   0.053159
H    1.239156   1.830443   0.801993
H    2.883538  -1.660403  -0.456081
H    2.749795  -0.277405  -1.554771
H    1.294997  -1.135167  -1.037562
H    3.144919   0.462465   0.799465
H    1.674180  -0.381532   1.303808

units ang
no_reorient
no_com
symmetry c1
}

set {
basis        aug-cc-pVTZ
scf_type     df
}

energy("sapt2+")
--------------------------------------------------------------------------

  Memory set to   9.313 GiB by Python driver.

Scratch directory: /scratch/
   => Loading Basis Set <=

    Name: AUG-CC-PVTZ
    Role: ORBITAL
    Keyword: BASIS
    atoms 1-2, 10-11 entry C          line   239 file /home/kchung25/anaconda3/envs/p415env/share/psi4/basis/aug-cc-pvtz.gbs 
    atoms 3, 12      entry O          line   331 file /home/kchung25/anaconda3/envs/p415env/share/psi4/basis/aug-cc-pvtz.gbs 
    atoms 4-9, 13-18 entry H          line    40 file /home/kchung25/anaconda3/envs/p415env/share/psi4/basis/aug-cc-pvtz.gbs 

   => Loading Basis Set <=

    Name: AUG-CC-PVTZ
    Role: ORBITAL
    Keyword: BASIS
    atoms 1-2, 10-11 entry C          line   239 file /home/kchung25/anaconda3/envs/p415env/share/psi4/basis/aug-cc-pvtz.gbs 
    atoms 3, 12      entry O          line   331 file /home/kchung25/anaconda3/envs/p415env/share/psi4/basis/aug-cc-pvtz.gbs 
    atoms 4-9, 13-18 entry H          line    40 file /home/kchung25/anaconda3/envs/p415env/share/psi4/basis/aug-cc-pvtz.gbs 


  //>>>>>>>>>>>>>>>>>>>>>>>>>>>>>>>>>>>//
  //              Dimer HF             //
  //<<<<<<<<<<<<<<<<<<<<<<<<<<<<<<<<<<<//

   => Libint2 <=

    Primary   basis highest AM E, G, H:  5, 4, 3
    Auxiliary basis highest AM E, G, H:  6, 5, 4
    Onebody   basis highest AM E, G, H:  6, 5, 4
    Solid Harmonics ordering:            gaussian

*** tstart() called on moses-razer
*** at Sun Mar  2 09:35:34 2025

   => Loading Basis Set <=

    Name: AUG-CC-PVTZ
    Role: ORBITAL
    Keyword: BASIS
    atoms 1-2, 10-11 entry C          line   239 file /home/kchung25/anaconda3/envs/p415env/share/psi4/basis/aug-cc-pvtz.gbs 
    atoms 3, 12      entry O          line   331 file /home/kchung25/anaconda3/envs/p415env/share/psi4/basis/aug-cc-pvtz.gbs 
    atoms 4-9, 13-18 entry H          line    40 file /home/kchung25/anaconda3/envs/p415env/share/psi4/basis/aug-cc-pvtz.gbs 


         ---------------------------------------------------------
                                   SCF
               by Justin Turney, Rob Parrish, Andy Simmonett
                          and Daniel G. A. Smith
                              RHF Reference
                        1 Threads,   9536 MiB Core
         ---------------------------------------------------------

  ==> Geometry <==

    Molecular point group: c1
    Full point group: C1

    Geometry (in Angstrom), charge = 0, multiplicity = 1:

       Center              X                  Y                   Z               Mass       
    ------------   -----------------  -----------------  -----------------  -----------------
         C           -1.309712000000    -0.853776000000     0.863334000000    12.000000000000
         C           -1.701819000000    -0.227589000000    -0.444987000000    12.000000000000
         O           -2.876766000000     0.525994000000    -0.229083000000    15.994914619570
         H           -3.094015000000     0.998003000000    -1.034725000000     1.007825032230
         H           -0.412837000000    -1.466231000000     0.745249000000     1.007825032230
         H           -2.112986000000    -1.486037000000     1.246490000000     1.007825032230
         H           -1.103432000000    -0.080066000000     1.606280000000     1.007825032230
         H           -1.872359000000    -1.011301000000    -1.198893000000     1.007825032230
         H           -0.881844000000     0.407298000000    -0.806420000000     1.007825032230
         C            2.279357000000    -0.789068000000    -0.713279000000    12.000000000000
         C            2.149938000000     0.140264000000     0.460358000000    12.000000000000
         O            1.374803000000     1.246626000000     0.053159000000    15.994914619570
         H            1.239156000000     1.830443000000     0.801993000000     1.007825032230
         H            2.883538000000    -1.660403000000    -0.456081000000     1.007825032230
         H            2.749795000000    -0.277405000000    -1.554771000000     1.007825032230
         H            1.294997000000    -1.135167000000    -1.037562000000     1.007825032230
         H            3.144919000000     0.462465000000     0.799465000000     1.007825032230
         H            1.674180000000    -0.381532000000     1.303808000000     1.007825032230

  Running in c1 symmetry.

  Rotational constants: A =      0.17497  B =      0.03984  C =      0.03759 [cm^-1]
  Rotational constants: A =   5245.59622  B =   1194.34042  C =   1126.79700 [MHz]
  Nuclear repulsion =  252.178334658398938

  Charge       = 0
  Multiplicity = 1
  Electrons    = 52
  Nalpha       = 26
  Nbeta        = 26

  ==> Algorithm <==

  SCF Algorithm Type is DF.
  DIIS enabled.
  MOM disabled.
  Fractional occupation disabled.
  Guess Type is SAD.
  Energy threshold   = 1.00e-08
  Density threshold  = 1.00e-08
  Integral threshold = 1.00e-12

  ==> Primary Basis <==

  Basis Set: AUG-CC-PVTZ
    Blend: AUG-CC-PVTZ
    Number of shells: 192
    Number of basis functions: 552
    Number of Cartesian functions: 630
    Spherical Harmonics?: true
    Max angular momentum: 3

   => Loading Basis Set <=

    Name: (AUG-CC-PVTZ AUX)
    Role: JKFIT
    Keyword: DF_BASIS_SCF
    atoms 1-2, 10-11 entry C          line   162 file /home/kchung25/anaconda3/envs/p415env/share/psi4/basis/aug-cc-pvtz-jkfit.gbs 
    atoms 3, 12      entry O          line   286 file /home/kchung25/anaconda3/envs/p415env/share/psi4/basis/aug-cc-pvtz-jkfit.gbs 
    atoms 4-9, 13-18 entry H          line    70 file /home/kchung25/anaconda3/envs/p415env/share/psi4/basis/aug-cc-pvtz-jkfit.gbs 

  ==> Integral Setup <==

  ==> DiskDFJK: Density-Fitted J/K Matrices <==

    J tasked:                  Yes
    K tasked:                  Yes
    wK tasked:                  No
    OpenMP threads:              1
    Integrals threads:           1
    Memory [MiB]:             7152
    Algorithm:                Core
    Integral Cache:           SAVE
    Schwarz Cutoff:          1E-12
    Fitting Condition:       1E-10

   => Auxiliary Basis Set <=

  Basis Set: (AUG-CC-PVTZ AUX)
    Blend: AUG-CC-PVTZ-JKFIT
    Number of shells: 348
    Number of basis functions: 1176
    Number of Cartesian functions: 1446
    Spherical Harmonics?: true
    Max angular momentum: 4

  Minimum eigenvalue in the overlap matrix is 6.6454841144E-06.
  Reciprocal condition number of the overlap matrix is 3.4961279497E-07.
    Using symmetric orthogonalization.

  ==> Pre-Iterations <==

  SCF Guess: Superposition of Atomic Densities via on-the-fly atomic UHF (no occupation information).

   -------------------------
    Irrep   Nso     Nmo    
   -------------------------
     A        552     552 
   -------------------------
    Total     552     552
   -------------------------

  ==> Iterations <==

                           Total Energy        Delta E     RMS |[F,P]|

   @DF-RHF iter SAD:  -307.05549006961178   -3.07055e+02   0.00000e+00 
   @DF-RHF iter   1:  -307.99886159996049   -9.43372e-01   1.34332e-03 DIIS/ADIIS
   @DF-RHF iter   2:  -308.22258074895842   -2.23719e-01   7.36115e-04 DIIS/ADIIS
   @DF-RHF iter   3:  -308.28543292451513   -6.28522e-02   1.19633e-04 DIIS/ADIIS
   @DF-RHF iter   4:  -308.28864781676378   -3.21489e-03   4.45888e-05 DIIS
   @DF-RHF iter   5:  -308.28899258248271   -3.44766e-04   8.22655e-06 DIIS
   @DF-RHF iter   6:  -308.28901202262830   -1.94401e-05   1.83116e-06 DIIS
   @DF-RHF iter   7:  -308.28901317231885   -1.14969e-06   5.66226e-07 DIIS
   @DF-RHF iter   8:  -308.28901326393134   -9.16125e-08   1.50657e-07 DIIS
   @DF-RHF iter   9:  -308.28901327259234   -8.66100e-09   3.61750e-08 DIIS
   @DF-RHF iter  10:  -308.28901327312951   -5.37170e-10   6.95763e-09 DIIS
  Energy and wave function converged.


  ==> Post-Iterations <==

    Orbital Energies [Eh]
    ---------------------

    Doubly Occupied:                                                      

       1A    -20.559981     2A    -20.548354     3A    -11.277095  
       4A    -11.262048     5A    -11.215475     6A    -11.206101  
       7A     -1.367097     8A     -1.354048     9A     -1.019009  
      10A     -1.007245    11A     -0.838221    12A     -0.825215  
      13A     -0.708421    14A     -0.696044    15A     -0.653179  
      16A     -0.635148    17A     -0.579171    18A     -0.567220  
      19A     -0.538743    20A     -0.533366    21A     -0.525166  
      22A     -0.517863    23A     -0.494411    24A     -0.479828  
      25A     -0.446959    26A     -0.428699  

    Virtual:                                                              

      27A      0.028049    28A      0.034530    29A      0.036887  
      30A      0.039661    31A      0.051743    32A      0.053958  
      33A      0.056254    34A      0.061534    35A      0.064530  
      36A      0.080735    37A      0.083019    38A      0.088868  
      39A      0.112164    40A      0.114703    41A      0.120077  
      42A      0.121771    43A      0.131014    44A      0.131509  
      45A      0.136624    46A      0.141653    47A      0.152727  
      48A      0.156906    49A      0.162320    50A      0.166936  
      51A      0.167734    52A      0.178182    53A      0.184036  
      54A      0.192664    55A      0.194232    56A      0.204578  
      57A      0.217591    58A      0.221300    59A      0.229374  
      60A      0.237566    61A      0.255526    62A      0.259366  
      63A      0.273372    64A      0.278612    65A      0.281864  
      66A      0.283881    67A      0.289175    68A      0.291730  
      69A      0.309163    70A      0.310944    71A      0.316789  
      72A      0.323996    73A      0.325285    74A      0.328221  
      75A      0.338607    76A      0.340922    77A      0.347431  
      78A      0.349535    79A      0.360423    80A      0.364394  
      81A      0.368862    82A      0.377404    83A      0.380810  
      84A      0.388821    85A      0.394239    86A      0.403067  
      87A      0.408374    88A      0.409528    89A      0.417248  
      90A      0.421501    91A      0.424236    92A      0.427511  
      93A      0.435536    94A      0.438569    95A      0.442414  
      96A      0.447008    97A      0.456605    98A      0.460013  
      99A      0.472166   100A      0.472579   101A      0.477147  
     102A      0.481224   103A      0.485583   104A      0.494335  
     105A      0.500254   106A      0.502582   107A      0.508657  
     108A      0.511973   109A      0.521433   110A      0.525893  
     111A      0.531118   112A      0.532614   113A      0.540155  
     114A      0.552055   115A      0.559811   116A      0.564149  
     117A      0.572025   118A      0.576181   119A      0.586102  
     120A      0.589312   121A      0.592701   122A      0.599663  
     123A      0.606923   124A      0.617838   125A      0.621109  
     126A      0.631043   127A      0.641593   128A      0.647365  
     129A      0.654180   130A      0.660914   131A      0.684423  
     132A      0.692149   133A      0.710835   134A      0.719732  
     135A      0.727405   136A      0.744032   137A      0.757355  
     138A      0.769590   139A      0.779735   140A      0.787505  
     141A      0.794663   142A      0.808096   143A      0.815825  
     144A      0.817645   145A      0.820949   146A      0.838436  
     147A      0.848747   148A      0.852060   149A      0.859029  
     150A      0.867210   151A      0.869644   152A      0.889445  
     153A      0.891993   154A      0.897299   155A      0.901398  
     156A      0.908470   157A      0.912642   158A      0.917830  
     159A      0.927161   160A      0.928752   161A      0.941340  
     162A      0.946753   163A      0.954397   164A      0.959249  
     165A      0.963123   166A      0.973121   167A      0.977445  
     168A      0.992153   169A      0.997682   170A      1.009876  
     171A      1.015865   172A      1.021051   173A      1.025855  
     174A      1.029389   175A      1.030310   176A      1.038261  
     177A      1.048770   178A      1.057597   179A      1.066197  
     180A      1.070831   181A      1.078774   182A      1.086610  
     183A      1.088823   184A      1.100168   185A      1.106184  
     186A      1.108028   187A      1.122305   188A      1.130886  
     189A      1.134614   190A      1.136477   191A      1.147522  
     192A      1.160463   193A      1.164828   194A      1.172638  
     195A      1.175277   196A      1.183154   197A      1.191884  
     198A      1.198815   199A      1.204765   200A      1.212870  
     201A      1.218677   202A      1.228060   203A      1.232116  
     204A      1.242465   205A      1.253414   206A      1.262633  
     207A      1.275233   208A      1.286666   209A      1.292216  
     210A      1.299998   211A      1.306478   212A      1.318044  
     213A      1.335146   214A      1.339924   215A      1.347915  
     216A      1.360957   217A      1.363414   218A      1.369402  
     219A      1.372942   220A      1.385392   221A      1.410114  
     222A      1.411695   223A      1.427907   224A      1.431542  
     225A      1.441543   226A      1.456573   227A      1.466220  
     228A      1.472041   229A      1.480268   230A      1.484336  
     231A      1.496173   232A      1.499384   233A      1.525912  
     234A      1.538458   235A      1.548303   236A      1.556184  
     237A      1.566914   238A      1.578133   239A      1.586317  
     240A      1.588276   241A      1.597847   242A      1.613544  
     243A      1.623009   244A      1.648748   245A      1.658713  
     246A      1.662338   247A      1.668596   248A      1.673925  
     249A      1.690429   250A      1.698712   251A      1.706105  
     252A      1.721324   253A      1.723855   254A      1.728271  
     255A      1.735744   256A      1.743257   257A      1.746910  
     258A      1.758832   259A      1.771375   260A      1.782072  
     261A      1.787743   262A      1.799215   263A      1.805491  
     264A      1.818699   265A      1.828752   266A      1.832811  
     267A      1.848254   268A      1.856947   269A      1.860659  
     270A      1.875481   271A      1.880251   272A      1.889300  
     273A      1.900507   274A      1.907849   275A      1.917733  
     276A      1.926677   277A      1.944002   278A      1.969985  
     279A      1.973170   280A      1.997842   281A      2.012940  
     282A      2.021941   283A      2.029997   284A      2.047964  
     285A      2.056538   286A      2.061215   287A      2.073747  
     288A      2.090202   289A      2.101959   290A      2.107714  
     291A      2.119659   292A      2.129386   293A      2.142327  
     294A      2.155055   295A      2.161484   296A      2.169474  
     297A      2.195916   298A      2.213873   299A      2.230524  
     300A      2.234949   301A      2.241245   302A      2.263447  
     303A      2.269192   304A      2.282529   305A      2.293234  
     306A      2.311659   307A      2.321064   308A      2.341795  
     309A      2.349037   310A      2.377584   311A      2.421389  
     312A      2.434114   313A      2.441361   314A      2.467586  
     315A      2.488210   316A      2.495357   317A      2.514901  
     318A      2.524999   319A      2.550877   320A      2.570280  
     321A      2.585245   322A      2.609949   323A      2.629727  
     324A      2.652966   325A      2.675590   326A      2.724175  
     327A      2.743420   328A      2.753109   329A      2.815897  
     330A      2.872241   331A      2.886665   332A      2.902896  
     333A      2.905660   334A      2.938384   335A      2.957192  
     336A      2.962094   337A      2.966745   338A      2.971302  
     339A      3.000752   340A      3.012866   341A      3.029169  
     342A      3.054710   343A      3.073677   344A      3.088635  
     345A      3.117928   346A      3.169537   347A      3.205481  
     348A      3.265149   349A      3.280526   350A      3.313969  
     351A      3.384413   352A      3.398244   353A      3.456703  
     354A      3.471624   355A      3.480266   356A      3.497897  
     357A      3.515223   358A      3.529896   359A      3.551988  
     360A      3.577309   361A      3.603116   362A      3.629909  
     363A      3.634927   364A      3.646250   365A      3.649869  
     366A      3.667962   367A      3.691129   368A      3.700157  
     369A      3.701923   370A      3.708188   371A      3.734784  
     372A      3.763462   373A      3.785210   374A      3.803874  
     375A      3.806934   376A      3.829421   377A      3.838974  
     378A      3.840206   379A      3.853505   380A      3.880796  
     381A      3.902910   382A      3.908179   383A      3.917290  
     384A      3.931009   385A      3.966584   386A      3.982813  
     387A      3.984850   388A      3.997353   389A      4.000786  
     390A      4.018447   391A      4.033245   392A      4.040750  
     393A      4.053440   394A      4.065673   395A      4.070955  
     396A      4.083559   397A      4.098360   398A      4.106700  
     399A      4.126226   400A      4.139131   401A      4.145272  
     402A      4.157890   403A      4.171583   404A      4.193754  
     405A      4.211752   406A      4.224433   407A      4.233127  
     408A      4.243148   409A      4.265847   410A      4.283506  
     411A      4.292410   412A      4.319481   413A      4.339422  
     414A      4.344707   415A      4.353219   416A      4.366262  
     417A      4.388971   418A      4.395246   419A      4.422694  
     420A      4.439691   421A      4.478818   422A      4.511655  
     423A      4.516651   424A      4.524643   425A      4.554130  
     426A      4.560427   427A      4.571358   428A      4.589194  
     429A      4.618222   430A      4.625544   431A      4.633970  
     432A      4.639031   433A      4.664204   434A      4.688979  
     435A      4.705631   436A      4.719735   437A      4.723078  
     438A      4.747991   439A      4.769738   440A      4.804746  
     441A      4.814628   442A      4.828867   443A      4.845091  
     444A      4.864855   445A      4.885390   446A      4.897704  
     447A      4.907554   448A      4.936884   449A      4.951811  
     450A      4.963903   451A      4.967856   452A      4.993139  
     453A      5.023857   454A      5.039916   455A      5.059593  
     456A      5.080044   457A      5.088535   458A      5.110007  
     459A      5.120047   460A      5.129598   461A      5.138185  
     462A      5.160185   463A      5.164817   464A      5.182748  
     465A      5.202368   466A      5.208135   467A      5.242617  
     468A      5.247207   469A      5.278507   470A      5.290164  
     471A      5.332918   472A      5.346377   473A      5.364638  
     474A      5.372136   475A      5.384179   476A      5.389850  
     477A      5.417991   478A      5.436595   479A      5.468617  
     480A      5.480062   481A      5.524297   482A      5.526600  
     483A      5.540319   484A      5.566888   485A      5.589018  
     486A      5.600615   487A      5.619172   488A      5.628740  
     489A      5.661721   490A      5.699274   491A      5.754082  
     492A      5.765094   493A      5.779243   494A      5.803307  
     495A      5.816749   496A      5.837306   497A      5.854077  
     498A      5.876724   499A      6.024136   500A      6.032264  
     501A      6.065305   502A      6.083103   503A      6.099442  
     504A      6.125880   505A      6.161189   506A      6.176883  
     507A      6.226261   508A      6.246641   509A      6.261725  
     510A      6.286301   511A      6.298316   512A      6.317000  
     513A      6.410807   514A      6.459195   515A      6.713371  
     516A      6.732969   517A      6.751896   518A      6.792597  
     519A      6.825224   520A      6.842805   521A      6.890406  
     522A      6.923259   523A      6.949590   524A      6.961721  
     525A      6.972769   526A      7.025400   527A      7.138412  
     528A      7.201534   529A      7.372288   530A      7.379330  
     531A      7.381391   532A      7.399617   533A      7.517578  
     534A      7.546466   535A      7.555820   536A      7.564229  
     537A      7.620807   538A      7.642759   539A      7.858936  
     540A      7.864332   541A      7.954424   542A      7.962894  
     543A      8.260509   544A      8.305727   545A      8.611153  
     546A      8.656845   547A     15.961983   548A     16.313421  
     549A     18.053189   550A     18.218199   551A     18.497657  
     552A     18.703476  

    Final Occupation by Irrep:
              A 
    DOCC [    26 ]
    NA   [    26 ]
    NB   [    26 ]

  @DF-RHF Final Energy:  -308.28901327312951

   => Energetics <=

    Nuclear Repulsion Energy =            252.1783346583989385
    One-Electron Energy =                -920.3664779978341812
    Two-Electron Energy =                 359.8991300663057018
    Total Energy =                       -308.2890132731295125

Computation Completed


Properties will be evaluated at   0.000000,   0.000000,   0.000000 [a0]

Properties computed using the SCF density matrix


 Multipole Moments:

 ------------------------------------------------------------------------------------
     Multipole            Electronic (a.u.)      Nuclear  (a.u.)        Total (a.u.)
 ------------------------------------------------------------------------------------

 L = 1.  Multiply by 2.5417464519 to convert [e a0] to [Debye]
 Dipole X            :          0.6769687           -0.0000151            0.6769536
 Dipole Y            :         -0.0782764            0.0000246           -0.0782518
 Dipole Z            :          0.0232933           -0.0000057            0.0232876
 Magnitude           :                                                    0.6818591

 ------------------------------------------------------------------------------------

*** tstop() called on moses-razer at Sun Mar  2 09:37:25 2025
Module time:
	user time   =     108.94 seconds =       1.82 minutes
	system time =       2.69 seconds =       0.04 minutes
	total time  =        111 seconds =       1.85 minutes
Total time:
	user time   =     108.94 seconds =       1.82 minutes
	system time =       2.69 seconds =       0.04 minutes
	total time  =        111 seconds =       1.85 minutes

  //>>>>>>>>>>>>>>>>>>>>>>>>>>>>>>>>>>>//
  //            Monomer A HF           //
  //<<<<<<<<<<<<<<<<<<<<<<<<<<<<<<<<<<<//

   => Libint2 <=

    Primary   basis highest AM E, G, H:  5, 4, 3
    Auxiliary basis highest AM E, G, H:  6, 5, 4
    Onebody   basis highest AM E, G, H:  6, 5, 4
    Solid Harmonics ordering:            gaussian

*** tstart() called on moses-razer
*** at Sun Mar  2 09:37:25 2025

   => Loading Basis Set <=

    Name: AUG-CC-PVTZ
    Role: ORBITAL
    Keyword: BASIS
    atoms 1-2, 10-11 entry C          line   239 file /home/kchung25/anaconda3/envs/p415env/share/psi4/basis/aug-cc-pvtz.gbs 
    atoms 3, 12      entry O          line   331 file /home/kchung25/anaconda3/envs/p415env/share/psi4/basis/aug-cc-pvtz.gbs 
    atoms 4-9, 13-18 entry H          line    40 file /home/kchung25/anaconda3/envs/p415env/share/psi4/basis/aug-cc-pvtz.gbs 


         ---------------------------------------------------------
                                   SCF
               by Justin Turney, Rob Parrish, Andy Simmonett
                          and Daniel G. A. Smith
                              RHF Reference
                        1 Threads,   9536 MiB Core
         ---------------------------------------------------------

  ==> Geometry <==

    Molecular point group: c1
    Full point group: C1

    Geometry (in Angstrom), charge = 0, multiplicity = 1:

       Center              X                  Y                   Z               Mass       
    ------------   -----------------  -----------------  -----------------  -----------------
         C           -1.309712000000    -0.853776000000     0.863334000000    12.000000000000
         C           -1.701819000000    -0.227589000000    -0.444987000000    12.000000000000
         O           -2.876766000000     0.525994000000    -0.229083000000    15.994914619570
         H           -3.094015000000     0.998003000000    -1.034725000000     1.007825032230
         H           -0.412837000000    -1.466231000000     0.745249000000     1.007825032230
         H           -2.112986000000    -1.486037000000     1.246490000000     1.007825032230
         H           -1.103432000000    -0.080066000000     1.606280000000     1.007825032230
         H           -1.872359000000    -1.011301000000    -1.198893000000     1.007825032230
         H           -0.881844000000     0.407298000000    -0.806420000000     1.007825032230
      Gh(C)           2.279357000000    -0.789068000000    -0.713279000000    12.000000000000
      Gh(C)           2.149938000000     0.140264000000     0.460358000000    12.000000000000
      Gh(O)           1.374803000000     1.246626000000     0.053159000000    15.994914619570
      Gh(H)           1.239156000000     1.830443000000     0.801993000000     1.007825032230
      Gh(H)           2.883538000000    -1.660403000000    -0.456081000000     1.007825032230
      Gh(H)           2.749795000000    -0.277405000000    -1.554771000000     1.007825032230
      Gh(H)           1.294997000000    -1.135167000000    -1.037562000000     1.007825032230
      Gh(H)           3.144919000000     0.462465000000     0.799465000000     1.007825032230
      Gh(H)           1.674180000000    -0.381532000000     1.303808000000     1.007825032230

  Running in c1 symmetry.

  Rotational constants: A =      0.17497  B =      0.03984  C =      0.03759 [cm^-1]
  Rotational constants: A =   5245.59622  B =   1194.34042  C =   1126.79700 [MHz]
  Nuclear repulsion =   82.255469455534012

  Charge       = 0
  Multiplicity = 1
  Electrons    = 26
  Nalpha       = 13
  Nbeta        = 13

  ==> Algorithm <==

  SCF Algorithm Type is DF.
  DIIS enabled.
  MOM disabled.
  Fractional occupation disabled.
  Guess Type is SAD.
  Energy threshold   = 1.00e-08
  Density threshold  = 1.00e-08
  Integral threshold = 1.00e-12

  ==> Primary Basis <==

  Basis Set: AUG-CC-PVTZ
    Blend: AUG-CC-PVTZ
    Number of shells: 192
    Number of basis functions: 552
    Number of Cartesian functions: 630
    Spherical Harmonics?: true
    Max angular momentum: 3

   => Loading Basis Set <=

    Name: (AUG-CC-PVTZ AUX)
    Role: JKFIT
    Keyword: DF_BASIS_SCF
    atoms 1-2, 10-11 entry C          line   162 file /home/kchung25/anaconda3/envs/p415env/share/psi4/basis/aug-cc-pvtz-jkfit.gbs 
    atoms 3, 12      entry O          line   286 file /home/kchung25/anaconda3/envs/p415env/share/psi4/basis/aug-cc-pvtz-jkfit.gbs 
    atoms 4-9, 13-18 entry H          line    70 file /home/kchung25/anaconda3/envs/p415env/share/psi4/basis/aug-cc-pvtz-jkfit.gbs 

  ==> Integral Setup <==

  ==> DiskDFJK: Density-Fitted J/K Matrices <==

    J tasked:                  Yes
    K tasked:                  Yes
    wK tasked:                  No
    OpenMP threads:              1
    Integrals threads:           1
    Memory [MiB]:             7152
    Algorithm:                Core
    Integral Cache:           LOAD
    Schwarz Cutoff:          1E-12
    Fitting Condition:       1E-10

   => Auxiliary Basis Set <=

  Basis Set: (AUG-CC-PVTZ AUX)
    Blend: AUG-CC-PVTZ-JKFIT
    Number of shells: 348
    Number of basis functions: 1176
    Number of Cartesian functions: 1446
    Spherical Harmonics?: true
    Max angular momentum: 4

  Minimum eigenvalue in the overlap matrix is 6.6454841144E-06.
  Reciprocal condition number of the overlap matrix is 3.4961279497E-07.
    Using symmetric orthogonalization.

  ==> Pre-Iterations <==

  SCF Guess: Superposition of Atomic Densities via on-the-fly atomic UHF (no occupation information).

   -------------------------
    Irrep   Nso     Nmo    
   -------------------------
     A        552     552 
   -------------------------
    Total     552     552
   -------------------------

  ==> Iterations <==

                           Total Energy        Delta E     RMS |[F,P]|

   @DF-RHF iter SAD:  -153.44946109446144   -1.53449e+02   0.00000e+00 
   @DF-RHF iter   1:  -153.99861467785811   -5.49154e-01   9.60681e-04 DIIS/ADIIS
   @DF-RHF iter   2:  -154.11075351828524   -1.12139e-01   5.34635e-04 DIIS/ADIIS
   @DF-RHF iter   3:  -154.14373073695083   -3.29772e-02   8.44285e-05 DIIS
   @DF-RHF iter   4:  -154.14532574375471   -1.59501e-03   3.23825e-05 DIIS
   @DF-RHF iter   5:  -154.14550990765494   -1.84164e-04   5.75875e-06 DIIS
   @DF-RHF iter   6:  -154.14551949002555   -9.58237e-06   1.27053e-06 DIIS
   @DF-RHF iter   7:  -154.14552004246539   -5.52440e-07   3.88823e-07 DIIS
   @DF-RHF iter   8:  -154.14552008552010   -4.30547e-08   1.04795e-07 DIIS
   @DF-RHF iter   9:  -154.14552008966103   -4.14093e-09   2.52652e-08 DIIS
   @DF-RHF iter  10:  -154.14552008992391   -2.62872e-10   4.80977e-09 DIIS
  Energy and wave function converged.


  ==> Post-Iterations <==

    Orbital Energies [Eh]
    ---------------------

    Doubly Occupied:                                                      

       1A    -20.556119     2A    -11.273754     3A    -11.210741  
       4A     -1.361928     5A     -1.014215     6A     -0.832677  
       7A     -0.703248     8A     -0.646130     9A     -0.574046  
      10A     -0.533047    11A     -0.524094    12A     -0.488711  
      13A     -0.440889  

    Virtual:                                                              

      14A      0.020830    15A      0.032482    16A      0.035215  
      17A      0.037721    18A      0.050324    19A      0.052964  
      20A      0.055494    21A      0.062240    22A      0.063878  
      23A      0.078762    24A      0.080126    25A      0.085586  
      26A      0.092851    27A      0.110873    28A      0.111876  
      29A      0.117269    30A      0.119284    31A      0.125469  
      32A      0.130149    33A      0.135735    34A      0.138895  
      35A      0.149439    36A      0.159207    37A      0.164195  
      38A      0.166514    39A      0.167392    40A      0.179185  
      41A      0.185684    42A      0.194756    43A      0.196031  
      44A      0.205780    45A      0.211426    46A      0.223982  
      47A      0.235805    48A      0.241845    49A      0.257995  
      50A      0.262274    51A      0.270392    52A      0.274473  
      53A      0.277677    54A      0.286885    55A      0.291006  
      56A      0.296873    57A      0.307342    58A      0.312611  
      59A      0.315938    60A      0.320633    61A      0.325606  
      62A      0.333079    63A      0.338546    64A      0.340675  
      65A      0.345332    66A      0.353831    67A      0.356042  
      68A      0.360016    69A      0.373984    70A      0.378256  
      71A      0.379603    72A      0.382089    73A      0.389096  
      74A      0.399135    75A      0.408322    76A      0.408754  
      77A      0.416972    78A      0.421877    79A      0.428904  
      80A      0.433649    81A      0.437616    82A      0.443632  
      83A      0.446038    84A      0.458511    85A      0.462149  
      86A      0.468682    87A      0.470256    88A      0.474666  
      89A      0.484598    90A      0.487349    91A      0.495697  
      92A      0.499858    93A      0.507628    94A      0.511478  
      95A      0.519492    96A      0.521462    97A      0.522295  
      98A      0.538127    99A      0.544219   100A      0.550236  
     101A      0.559070   102A      0.565586   103A      0.576444  
     104A      0.582851   105A      0.586530   106A      0.596527  
     107A      0.598872   108A      0.612921   109A      0.617262  
     110A      0.623832   111A      0.635986   112A      0.640620  
     113A      0.643596   114A      0.647610   115A      0.661539  
     116A      0.667604   117A      0.675928   118A      0.685328  
     119A      0.695045   120A      0.699532   121A      0.708996  
     122A      0.713946   123A      0.721756   124A      0.744493  
     125A      0.751439   126A      0.756788   127A      0.764135  
     128A      0.784086   129A      0.787089   130A      0.799036  
     131A      0.816678   132A      0.822538   133A      0.826841  
     134A      0.837465   135A      0.855488   136A      0.858044  
     137A      0.862871   138A      0.881926   139A      0.892026  
     140A      0.898605   141A      0.909035   142A      0.914039  
     143A      0.922586   144A      0.929376   145A      0.940523  
     146A      0.945170   147A      0.954426   148A      0.963435  
     149A      0.974958   150A      0.977885   151A      0.987368  
     152A      0.994403   153A      1.005560   154A      1.013703  
     155A      1.021166   156A      1.025890   157A      1.035955  
     158A      1.039262   159A      1.046188   160A      1.051938  
     161A      1.059858   162A      1.065037   163A      1.073825  
     164A      1.082150   165A      1.088203   166A      1.097802  
     167A      1.101711   168A      1.105940   169A      1.107715  
     170A      1.118257   171A      1.119454   172A      1.135666  
     173A      1.143096   174A      1.150960   175A      1.160504  
     176A      1.163608   177A      1.168136   178A      1.174175  
     179A      1.181541   180A      1.186001   181A      1.189750  
     182A      1.194618   183A      1.206386   184A      1.210454  
     185A      1.216742   186A      1.228788   187A      1.233564  
     188A      1.237741   189A      1.259761   190A      1.264263  
     191A      1.271174   192A      1.272816   193A      1.285191  
     194A      1.285928   195A      1.301068   196A      1.303717  
     197A      1.321698   198A      1.326260   199A      1.335270  
     200A      1.344154   201A      1.351889   202A      1.357162  
     203A      1.368655   204A      1.369964   205A      1.385835  
     206A      1.405062   207A      1.407343   208A      1.410811  
     209A      1.422028   210A      1.431583   211A      1.445732  
     212A      1.448428   213A      1.451657   214A      1.472394  
     215A      1.483015   216A      1.493861   217A      1.505825  
     218A      1.515459   219A      1.524528   220A      1.531756  
     221A      1.534257   222A      1.541779   223A      1.550855  
     224A      1.558172   225A      1.574518   226A      1.583943  
     227A      1.592712   228A      1.601947   229A      1.616401  
     230A      1.625749   231A      1.639298   232A      1.658497  
     233A      1.661868   234A      1.669632   235A      1.687600  
     236A      1.693761   237A      1.704486   238A      1.715370  
     239A      1.724191   240A      1.731971   241A      1.749210  
     242A      1.751824   243A      1.770415   244A      1.770945  
     245A      1.776933   246A      1.791140   247A      1.800873  
     248A      1.814836   249A      1.817573   250A      1.832299  
     251A      1.850974   252A      1.859967   253A      1.868094  
     254A      1.879500   255A      1.887044   256A      1.896225  
     257A      1.926118   258A      1.927454   259A      1.941031  
     260A      1.957075   261A      1.974358   262A      1.979945  
     263A      1.986894   264A      2.005912   265A      2.021489  
     266A      2.029100   267A      2.048931   268A      2.051075  
     269A      2.062955   270A      2.067393   271A      2.077297  
     272A      2.091634   273A      2.097240   274A      2.108987  
     275A      2.126659   276A      2.134360   277A      2.145491  
     278A      2.163108   279A      2.171790   280A      2.178705  
     281A      2.202452   282A      2.213966   283A      2.215809  
     284A      2.241766   285A      2.254073   286A      2.259716  
     287A      2.264828   288A      2.289132   289A      2.296347  
     290A      2.322498   291A      2.327413   292A      2.333437  
     293A      2.364069   294A      2.376122   295A      2.389253  
     296A      2.409858   297A      2.449342   298A      2.459572  
     299A      2.470807   300A      2.487665   301A      2.499474  
     302A      2.525410   303A      2.551108   304A      2.560908  
     305A      2.576368   306A      2.579812   307A      2.602489  
     308A      2.619330   309A      2.640773   310A      2.658643  
     311A      2.697440   312A      2.713089   313A      2.730070  
     314A      2.738120   315A      2.748039   316A      2.790956  
     317A      2.803887   318A      2.823613   319A      2.850707  
     320A      2.861311   321A      2.879062   322A      2.914931  
     323A      2.924134   324A      2.951959   325A      2.972030  
     326A      2.994675   327A      3.013408   328A      3.020403  
     329A      3.054352   330A      3.076271   331A      3.094260  
     332A      3.156456   333A      3.162803   334A      3.197912  
     335A      3.230272   336A      3.271565   337A      3.304110  
     338A      3.335582   339A      3.361356   340A      3.406816  
     341A      3.427832   342A      3.472162   343A      3.475949  
     344A      3.509119   345A      3.518792   346A      3.561356  
     347A      3.587983   348A      3.607885   349A      3.621710  
     350A      3.631200   351A      3.655331   352A      3.684573  
     353A      3.706645   354A      3.715263   355A      3.753604  
     356A      3.775376   357A      3.810768   358A      3.818774  
     359A      3.852272   360A      3.868029   361A      3.891510  
     362A      3.907304   363A      3.940595   364A      3.966813  
     365A      3.979513   366A      3.996875   367A      4.014188  
     368A      4.016981   369A      4.034010   370A      4.069737  
     371A      4.080216   372A      4.111213   373A      4.127707  
     374A      4.133699   375A      4.153413   376A      4.169352  
     377A      4.175811   378A      4.190550   379A      4.209173  
     380A      4.229588   381A      4.237570   382A      4.262208  
     383A      4.281155   384A      4.284542   385A      4.303981  
     386A      4.325373   387A      4.339995   388A      4.348196  
     389A      4.351444   390A      4.377017   391A      4.412601  
     392A      4.430831   393A      4.451380   394A      4.470388  
     395A      4.486170   396A      4.509892   397A      4.522332  
     398A      4.535931   399A      4.539104   400A      4.556402  
     401A      4.587501   402A      4.613815   403A      4.622403  
     404A      4.632187   405A      4.639166   406A      4.658819  
     407A      4.668168   408A      4.683663   409A      4.693271  
     410A      4.714878   411A      4.722500   412A      4.729065  
     413A      4.757666   414A      4.764526   415A      4.773595  
     416A      4.802888   417A      4.816496   418A      4.829772  
     419A      4.869799   420A      4.878169   421A      4.907364  
     422A      4.918672   423A      4.927121   424A      4.938046  
     425A      4.946566   426A      4.963631   427A      4.979556  
     428A      4.990350   429A      5.021510   430A      5.030395  
     431A      5.060213   432A      5.071061   433A      5.082236  
     434A      5.083360   435A      5.112979   436A      5.116088  
     437A      5.164051   438A      5.167460   439A      5.176004  
     440A      5.195972   441A      5.207817   442A      5.240651  
     443A      5.254179   444A      5.263719   445A      5.293297  
     446A      5.332958   447A      5.339183   448A      5.356353  
     449A      5.371065   450A      5.382234   451A      5.396838  
     452A      5.423321   453A      5.445513   454A      5.460713  
     455A      5.488334   456A      5.510628   457A      5.525690  
     458A      5.534411   459A      5.553245   460A      5.564169  
     461A      5.585917   462A      5.591846   463A      5.603715  
     464A      5.607079   465A      5.639063   466A      5.651581  
     467A      5.690072   468A      5.711181   469A      5.729107  
     470A      5.762295   471A      5.776414   472A      5.791733  
     473A      5.809918   474A      5.832279   475A      5.869819  
     476A      5.914715   477A      5.943488   478A      6.001470  
     479A      6.013625   480A      6.027716   481A      6.052278  
     482A      6.074560   483A      6.116095   484A      6.141093  
     485A      6.167627   486A      6.197203   487A      6.223311  
     488A      6.247311   489A      6.266605   490A      6.284128  
     491A      6.293876   492A      6.331206   493A      6.443348  
     494A      6.463844   495A      6.551933   496A      6.723865  
     497A      6.736179   498A      6.822777   499A      6.828746  
     500A      6.880014   501A      6.909367   502A      6.922849  
     503A      6.948084   504A      6.957182   505A      7.026664  
     506A      7.102260   507A      7.121440   508A      7.141897  
     509A      7.213581   510A      7.303385   511A      7.368481  
     512A      7.373339   513A      7.509958   514A      7.540147  
     515A      7.623762   516A      7.783770   517A      7.837950  
     518A      7.846880   519A      7.857676   520A      7.875418  
     521A      7.894320   522A      7.934145   523A      7.961732  
     524A      7.987229   525A      8.166225   526A      8.192147  
     527A      8.221404   528A      8.256071   529A      8.317632  
     530A      8.373258   531A      8.454173   532A      8.598277  
     533A      8.605884   534A      8.910964   535A      9.055927  
     536A     10.004468   537A     10.141252   538A     10.385618  
     539A     10.412204   540A     10.422038   541A     10.813855  
     542A     11.088880   543A     12.037830   544A     12.438765  
     545A     13.298877   546A     14.157591   547A     15.960105  
     548A     18.204401   549A     18.619937   550A     53.160042  
     551A     54.411544   552A     66.795935  

    Final Occupation by Irrep:
              A 
    DOCC [    13 ]
    NA   [    13 ]
    NB   [    13 ]

  @DF-RHF Final Energy:  -154.14552008992391

   => Energetics <=

    Nuclear Repulsion Energy =             82.2554694555340120
    One-Electron Energy =                -372.4827830230334484
    Two-Electron Energy =                 136.0817934775755305
    Total Energy =                       -154.1455200899239060

Computation Completed


Properties will be evaluated at   0.000000,   0.000000,   0.000000 [a0]

Properties computed using the SCF density matrix


 Multipole Moments:

 ------------------------------------------------------------------------------------
     Multipole            Electronic (a.u.)      Nuclear  (a.u.)        Total (a.u.)
 ------------------------------------------------------------------------------------

 L = 1.  Multiply by 2.5417464519 to convert [e a0] to [Debye]
 Dipole X            :         95.9018347          -95.5460401            0.3557946
 Dipole Y            :          9.2688148           -9.2947540           -0.0259392
 Dipole Z            :         -2.8908711            2.3345658           -0.5563054
 Magnitude           :                                                    0.6608618

 ------------------------------------------------------------------------------------

*** tstop() called on moses-razer at Sun Mar  2 09:38:53 2025
Module time:
	user time   =      85.90 seconds =       1.43 minutes
	system time =       1.22 seconds =       0.02 minutes
	total time  =         88 seconds =       1.47 minutes
Total time:
	user time   =     194.85 seconds =       3.25 minutes
	system time =       3.91 seconds =       0.07 minutes
	total time  =        199 seconds =       3.32 minutes

  //>>>>>>>>>>>>>>>>>>>>>>>>>>>>>>>>>>>//
  //            Monomer B HF           //
  //<<<<<<<<<<<<<<<<<<<<<<<<<<<<<<<<<<<//

   => Libint2 <=

    Primary   basis highest AM E, G, H:  5, 4, 3
    Auxiliary basis highest AM E, G, H:  6, 5, 4
    Onebody   basis highest AM E, G, H:  6, 5, 4
    Solid Harmonics ordering:            gaussian

*** tstart() called on moses-razer
*** at Sun Mar  2 09:38:53 2025

   => Loading Basis Set <=

    Name: AUG-CC-PVTZ
    Role: ORBITAL
    Keyword: BASIS
    atoms 1-2, 10-11 entry C          line   239 file /home/kchung25/anaconda3/envs/p415env/share/psi4/basis/aug-cc-pvtz.gbs 
    atoms 3, 12      entry O          line   331 file /home/kchung25/anaconda3/envs/p415env/share/psi4/basis/aug-cc-pvtz.gbs 
    atoms 4-9, 13-18 entry H          line    40 file /home/kchung25/anaconda3/envs/p415env/share/psi4/basis/aug-cc-pvtz.gbs 


         ---------------------------------------------------------
                                   SCF
               by Justin Turney, Rob Parrish, Andy Simmonett
                          and Daniel G. A. Smith
                              RHF Reference
                        1 Threads,   9536 MiB Core
         ---------------------------------------------------------

  ==> Geometry <==

    Molecular point group: c1
    Full point group: C1

    Geometry (in Angstrom), charge = 0, multiplicity = 1:

       Center              X                  Y                   Z               Mass       
    ------------   -----------------  -----------------  -----------------  -----------------
      Gh(C)          -1.309712000000    -0.853776000000     0.863334000000    12.000000000000
      Gh(C)          -1.701819000000    -0.227589000000    -0.444987000000    12.000000000000
      Gh(O)          -2.876766000000     0.525994000000    -0.229083000000    15.994914619570
      Gh(H)          -3.094015000000     0.998003000000    -1.034725000000     1.007825032230
      Gh(H)          -0.412837000000    -1.466231000000     0.745249000000     1.007825032230
      Gh(H)          -2.112986000000    -1.486037000000     1.246490000000     1.007825032230
      Gh(H)          -1.103432000000    -0.080066000000     1.606280000000     1.007825032230
      Gh(H)          -1.872359000000    -1.011301000000    -1.198893000000     1.007825032230
      Gh(H)          -0.881844000000     0.407298000000    -0.806420000000     1.007825032230
         C            2.279357000000    -0.789068000000    -0.713279000000    12.000000000000
         C            2.149938000000     0.140264000000     0.460358000000    12.000000000000
         O            1.374803000000     1.246626000000     0.053159000000    15.994914619570
         H            1.239156000000     1.830443000000     0.801993000000     1.007825032230
         H            2.883538000000    -1.660403000000    -0.456081000000     1.007825032230
         H            2.749795000000    -0.277405000000    -1.554771000000     1.007825032230
         H            1.294997000000    -1.135167000000    -1.037562000000     1.007825032230
         H            3.144919000000     0.462465000000     0.799465000000     1.007825032230
         H            1.674180000000    -0.381532000000     1.303808000000     1.007825032230

  Running in c1 symmetry.

  Rotational constants: A =      0.17497  B =      0.03984  C =      0.03759 [cm^-1]
  Rotational constants: A =   5245.59622  B =   1194.34042  C =   1126.79700 [MHz]
  Nuclear repulsion =   82.272223599838341

  Charge       = 0
  Multiplicity = 1
  Electrons    = 26
  Nalpha       = 13
  Nbeta        = 13

  ==> Algorithm <==

  SCF Algorithm Type is DF.
  DIIS enabled.
  MOM disabled.
  Fractional occupation disabled.
  Guess Type is SAD.
  Energy threshold   = 1.00e-08
  Density threshold  = 1.00e-08
  Integral threshold = 1.00e-12

  ==> Primary Basis <==

  Basis Set: AUG-CC-PVTZ
    Blend: AUG-CC-PVTZ
    Number of shells: 192
    Number of basis functions: 552
    Number of Cartesian functions: 630
    Spherical Harmonics?: true
    Max angular momentum: 3

   => Loading Basis Set <=

    Name: (AUG-CC-PVTZ AUX)
    Role: JKFIT
    Keyword: DF_BASIS_SCF
    atoms 1-2, 10-11 entry C          line   162 file /home/kchung25/anaconda3/envs/p415env/share/psi4/basis/aug-cc-pvtz-jkfit.gbs 
    atoms 3, 12      entry O          line   286 file /home/kchung25/anaconda3/envs/p415env/share/psi4/basis/aug-cc-pvtz-jkfit.gbs 
    atoms 4-9, 13-18 entry H          line    70 file /home/kchung25/anaconda3/envs/p415env/share/psi4/basis/aug-cc-pvtz-jkfit.gbs 

  ==> Integral Setup <==

  ==> DiskDFJK: Density-Fitted J/K Matrices <==

    J tasked:                  Yes
    K tasked:                  Yes
    wK tasked:                  No
    OpenMP threads:              1
    Integrals threads:           1
    Memory [MiB]:             7152
    Algorithm:                Core
    Integral Cache:           LOAD
    Schwarz Cutoff:          1E-12
    Fitting Condition:       1E-10

   => Auxiliary Basis Set <=

  Basis Set: (AUG-CC-PVTZ AUX)
    Blend: AUG-CC-PVTZ-JKFIT
    Number of shells: 348
    Number of basis functions: 1176
    Number of Cartesian functions: 1446
    Spherical Harmonics?: true
    Max angular momentum: 4

  Minimum eigenvalue in the overlap matrix is 6.6454841144E-06.
  Reciprocal condition number of the overlap matrix is 3.4961279497E-07.
    Using symmetric orthogonalization.

  ==> Pre-Iterations <==

  SCF Guess: Superposition of Atomic Densities via on-the-fly atomic UHF (no occupation information).

   -------------------------
    Irrep   Nso     Nmo    
   -------------------------
     A        552     552 
   -------------------------
    Total     552     552
   -------------------------

  ==> Iterations <==

                           Total Energy        Delta E     RMS |[F,P]|

   @DF-RHF iter SAD:  -153.45041934267704   -1.53450e+02   0.00000e+00 
   @DF-RHF iter   1:  -153.99871796461869   -5.48299e-01   9.60905e-04 DIIS/ADIIS
   @DF-RHF iter   2:  -154.11085902345340   -1.12141e-01   5.35023e-04 DIIS/ADIIS
   @DF-RHF iter   3:  -154.14387872979162   -3.30197e-02   8.44026e-05 DIIS
   @DF-RHF iter   4:  -154.14547552901018   -1.59680e-03   3.23331e-05 DIIS
   @DF-RHF iter   5:  -154.14565933038267   -1.83801e-04   5.76177e-06 DIIS
   @DF-RHF iter   6:  -154.14566893282333   -9.60244e-06   1.27513e-06 DIIS
   @DF-RHF iter   7:  -154.14566948814996   -5.55327e-07   3.91783e-07 DIIS
   @DF-RHF iter   8:  -154.14566953192977   -4.37798e-08   1.05079e-07 DIIS
   @DF-RHF iter   9:  -154.14566953612234   -4.19257e-09   2.53322e-08 DIIS
   @DF-RHF iter  10:  -154.14566953638629   -2.63952e-10   4.82541e-09 DIIS
  Energy and wave function converged.


  ==> Post-Iterations <==

    Orbital Energies [Eh]
    ---------------------

    Doubly Occupied:                                                      

       1A    -20.555719     2A    -11.273705     3A    -11.210759  
       4A     -1.361987     5A     -1.013934     6A     -0.833266  
       7A     -0.703543     8A     -0.645618     9A     -0.573884  
      10A     -0.533651    11A     -0.524035    12A     -0.488954  
      13A     -0.440076  

    Virtual:                                                              

      14A      0.022830    15A      0.032885    16A      0.036426  
      17A      0.037974    18A      0.052648    19A      0.053313  
      20A      0.055020    21A      0.061264    22A      0.064284  
      23A      0.077548    24A      0.083325    25A      0.085675  
      26A      0.097203    27A      0.110559    28A      0.114959  
      29A      0.115994    30A      0.121181    31A      0.128265  
      32A      0.132044    33A      0.136046    34A      0.146548  
      35A      0.149427    36A      0.158055    37A      0.159953  
      38A      0.164972    39A      0.170303    40A      0.177289  
      41A      0.183867    42A      0.194510    43A      0.200892  
      44A      0.207973    45A      0.215620    46A      0.229493  
      47A      0.235962    48A      0.240121    49A      0.260353  
      50A      0.263497    51A      0.268010    52A      0.281670  
      53A      0.284221    54A      0.285431    55A      0.294264  
      56A      0.303650    57A      0.308281    58A      0.315246  
      59A      0.316750    60A      0.319214    61A      0.325591  
      62A      0.330111    63A      0.336051    64A      0.343180  
      65A      0.347023    66A      0.353749    67A      0.354112  
      68A      0.363989    69A      0.369517    70A      0.374063  
      71A      0.380334    72A      0.391569    73A      0.398292  
      74A      0.403586    75A      0.407508    76A      0.413683  
      77A      0.415705    78A      0.425480    79A      0.438457  
      80A      0.440222    81A      0.445231    82A      0.446671  
      83A      0.454293    84A      0.455150    85A      0.464044  
      86A      0.467485    87A      0.471009    88A      0.478364  
      89A      0.484841    90A      0.493038    91A      0.498458  
      92A      0.504361    93A      0.509549    94A      0.520683  
      95A      0.525342    96A      0.527584    97A      0.534125  
      98A      0.540287    99A      0.545477   100A      0.553288  
     101A      0.556264   102A      0.562742   103A      0.567510  
     104A      0.582977   105A      0.587286   106A      0.596063  
     107A      0.604865   108A      0.617705   109A      0.621327  
     110A      0.624334   111A      0.624505   112A      0.631640  
     113A      0.639787   114A      0.650075   115A      0.654197  
     116A      0.666964   117A      0.670140   118A      0.677294  
     119A      0.680030   120A      0.701766   121A      0.715132  
     122A      0.726830   123A      0.734366   124A      0.736937  
     125A      0.739806   126A      0.763703   127A      0.773995  
     128A      0.801399   129A      0.815130   130A      0.819674  
     131A      0.825324   132A      0.838344   133A      0.845205  
     134A      0.848844   135A      0.865421   136A      0.873413  
     137A      0.878769   138A      0.889792   139A      0.899499  
     140A      0.900883   141A      0.910672   142A      0.920350  
     143A      0.925795   144A      0.930536   145A      0.945081  
     146A      0.949721   147A      0.952031   148A      0.969845  
     149A      0.972238   150A      0.986572   151A      0.996684  
     152A      0.999351   153A      1.011391   154A      1.013735  
     155A      1.020010   156A      1.029256   157A      1.035402  
     158A      1.041025   159A      1.044461   160A      1.048317  
     161A      1.060447   162A      1.063511   163A      1.072846  
     164A      1.077703   165A      1.083412   166A      1.096189  
     167A      1.099564   168A      1.103103   169A      1.104884  
     170A      1.116928   171A      1.123246   172A      1.129568  
     173A      1.137643   174A      1.141324   175A      1.147745  
     176A      1.154932   177A      1.172324   178A      1.173471  
     179A      1.178454   180A      1.189029   181A      1.198206  
     182A      1.207022   183A      1.209425   184A      1.221210  
     185A      1.223403   186A      1.234576   187A      1.238151  
     188A      1.243706   189A      1.254253   190A      1.255714  
     191A      1.271267   192A      1.277620   193A      1.281393  
     194A      1.292693   195A      1.302961   196A      1.315804  
     197A      1.323995   198A      1.330348   199A      1.343504  
     200A      1.346340   201A      1.362735   202A      1.368587  
     203A      1.372665   204A      1.377669   205A      1.390021  
     206A      1.398946   207A      1.407038   208A      1.418184  
     209A      1.427395   210A      1.436087   211A      1.440205  
     212A      1.456347   213A      1.468299   214A      1.476404  
     215A      1.479279   216A      1.497192   217A      1.506482  
     218A      1.514519   219A      1.528051   220A      1.531704  
     221A      1.541942   222A      1.555266   223A      1.565600  
     224A      1.576556   225A      1.580099   226A      1.597206  
     227A      1.601104   228A      1.606743   229A      1.615396  
     230A      1.617076   231A      1.635936   232A      1.651903  
     233A      1.662669   234A      1.679409   235A      1.687386  
     236A      1.694896   237A      1.697637   238A      1.719403  
     239A      1.734413   240A      1.738584   241A      1.745355  
     242A      1.752666   243A      1.759274   244A      1.782432  
     245A      1.785194   246A      1.790783   247A      1.807999  
     248A      1.826763   249A      1.847146   250A      1.858344  
     251A      1.865578   252A      1.877040   253A      1.877366  
     254A      1.892682   255A      1.900146   256A      1.918249  
     257A      1.929484   258A      1.945261   259A      1.948716  
     260A      1.955324   261A      1.964612   262A      1.981126  
     263A      1.987095   264A      2.002684   265A      2.014527  
     266A      2.025351   267A      2.033879   268A      2.052349  
     269A      2.062005   270A      2.079918   271A      2.092932  
     272A      2.096303   273A      2.109701   274A      2.120262  
     275A      2.134794   276A      2.137581   277A      2.147851  
     278A      2.164048   279A      2.171364   280A      2.191886  
     281A      2.197638   282A      2.210160   283A      2.235979  
     284A      2.258799   285A      2.268778   286A      2.272481  
     287A      2.282162   288A      2.289699   289A      2.302479  
     290A      2.312169   291A      2.323525   292A      2.343049  
     293A      2.365698   294A      2.409870   295A      2.415673  
     296A      2.443342   297A      2.447686   298A      2.459382  
     299A      2.484432   300A      2.493963   301A      2.507743  
     302A      2.532715   303A      2.542890   304A      2.578931  
     305A      2.594161   306A      2.610997   307A      2.637515  
     308A      2.668817   309A      2.687072   310A      2.695260  
     311A      2.716307   312A      2.721638   313A      2.737670  
     314A      2.749326   315A      2.770350   316A      2.776857  
     317A      2.790379   318A      2.817680   319A      2.827674  
     320A      2.856544   321A      2.888588   322A      2.914631  
     323A      2.918503   324A      2.968842   325A      2.980273  
     326A      2.986475   327A      3.017966   328A      3.026997  
     329A      3.048182   330A      3.075864   331A      3.101353  
     332A      3.116378   333A      3.135176   334A      3.177457  
     335A      3.194683   336A      3.226396   337A      3.282326  
     338A      3.296082   339A      3.354198   340A      3.387944  
     341A      3.411908   342A      3.476859   343A      3.492430  
     344A      3.496612   345A      3.531647   346A      3.540951  
     347A      3.572719   348A      3.632123   349A      3.643500  
     350A      3.649439   351A      3.686307   352A      3.687810  
     353A      3.715826   354A      3.721316   355A      3.762284  
     356A      3.781516   357A      3.791588   358A      3.820087  
     359A      3.835286   360A      3.851428   361A      3.863875  
     362A      3.887433   363A      3.959116   364A      3.984537  
     365A      3.986238   366A      4.006065   367A      4.016563  
     368A      4.042660   369A      4.056830   370A      4.070741  
     371A      4.081879   372A      4.110602   373A      4.137348  
     374A      4.153923   375A      4.157466   376A      4.173871  
     377A      4.182584   378A      4.193083   379A      4.212616  
     380A      4.221934   381A      4.240096   382A      4.258789  
     383A      4.278803   384A      4.295241   385A      4.305419  
     386A      4.318152   387A      4.343808   388A      4.357085  
     389A      4.389771   390A      4.394137   391A      4.413707  
     392A      4.425219   393A      4.457603   394A      4.473156  
     395A      4.488780   396A      4.504491   397A      4.512299  
     398A      4.539948   399A      4.553469   400A      4.567774  
     401A      4.573200   402A      4.587709   403A      4.614681  
     404A      4.623402   405A      4.628533   406A      4.658101  
     407A      4.671636   408A      4.678839   409A      4.685031  
     410A      4.709702   411A      4.722286   412A      4.752108  
     413A      4.760811   414A      4.770570   415A      4.797244  
     416A      4.826520   417A      4.849717   418A      4.868045  
     419A      4.884785   420A      4.891381   421A      4.905620  
     422A      4.913638   423A      4.917597   424A      4.938394  
     425A      4.947846   426A      4.973265   427A      4.986203  
     428A      5.006600   429A      5.037728   430A      5.052030  
     431A      5.071048   432A      5.072292   433A      5.091211  
     434A      5.096047   435A      5.111782   436A      5.125801  
     437A      5.139459   438A      5.158495   439A      5.176368  
     440A      5.200149   441A      5.223910   442A      5.241091  
     443A      5.251072   444A      5.260490   445A      5.295507  
     446A      5.331786   447A      5.345082   448A      5.348128  
     449A      5.379931   450A      5.381892   451A      5.403336  
     452A      5.416209   453A      5.449853   454A      5.475370  
     455A      5.485919   456A      5.501330   457A      5.534498  
     458A      5.542093   459A      5.544985   460A      5.571863  
     461A      5.584186   462A      5.587963   463A      5.633420  
     464A      5.644316   465A      5.668392   466A      5.682960  
     467A      5.707802   468A      5.734461   469A      5.741571  
     470A      5.760576   471A      5.786860   472A      5.819225  
     473A      5.831039   474A      5.857761   475A      5.863723  
     476A      5.903594   477A      5.964297   478A      6.013859  
     479A      6.020227   480A      6.039490   481A      6.060843  
     482A      6.088931   483A      6.105529   484A      6.161841  
     485A      6.174450   486A      6.208624   487A      6.214783  
     488A      6.241087   489A      6.278675   490A      6.312334  
     491A      6.321249   492A      6.334659   493A      6.418946  
     494A      6.491471   495A      6.550272   496A      6.733885  
     497A      6.796959   498A      6.822483   499A      6.831708  
     500A      6.885997   501A      6.901036   502A      6.965314  
     503A      6.974423   504A      7.016400   505A      7.054572  
     506A      7.099004   507A      7.194597   508A      7.210949  
     509A      7.223345   510A      7.311334   511A      7.384610  
     512A      7.403787   513A      7.559715   514A      7.567330  
     515A      7.633520   516A      7.751164   517A      7.829241  
     518A      7.844436   519A      7.868750   520A      7.877494  
     521A      7.895129   522A      7.914627   523A      7.963387  
     524A      8.009808   525A      8.109433   526A      8.185350  
     527A      8.196326   528A      8.299739   529A      8.372055  
     530A      8.402321   531A      8.418700   532A      8.593946  
     533A      8.661929   534A      8.888636   535A      9.074829  
     536A      9.930817   537A     10.092885   538A     10.364100  
     539A     10.409299   540A     10.432278   541A     10.822197  
     542A     11.098123   543A     11.920589   544A     12.273319  
     545A     13.300025   546A     14.130978   547A     16.331058  
     548A     18.077250   549A     18.553995   550A     53.472686  
     551A     54.588258   552A     65.909219  

    Final Occupation by Irrep:
              A 
    DOCC [    13 ]
    NA   [    13 ]
    NB   [    13 ]

  @DF-RHF Final Energy:  -154.14566953638629

   => Energetics <=

    Nuclear Repulsion Energy =             82.2722235998383411
    One-Electron Energy =                -372.5175242046358335
    Two-Electron Energy =                 136.0996310684111847
    Total Energy =                       -154.1456695363862934

Computation Completed


Properties will be evaluated at   0.000000,   0.000000,   0.000000 [a0]

Properties computed using the SCF density matrix


 Multipole Moments:

 ------------------------------------------------------------------------------------
     Multipole            Electronic (a.u.)      Nuclear  (a.u.)        Total (a.u.)
 ------------------------------------------------------------------------------------

 L = 1.  Multiply by 2.5417464519 to convert [e a0] to [Debye]
 Dipole X            :        -95.3122279           95.5460250            0.2337971
 Dipole Y            :         -9.4054728            9.2947786           -0.1106942
 Dipole Z            :          2.9378450           -2.3345714            0.6032736
 Magnitude           :                                                    0.6563942

 ------------------------------------------------------------------------------------

*** tstop() called on moses-razer at Sun Mar  2 09:40:19 2025
Module time:
	user time   =      84.76 seconds =       1.41 minutes
	system time =       1.28 seconds =       0.02 minutes
	total time  =         86 seconds =       1.43 minutes
Total time:
	user time   =     279.62 seconds =       4.66 minutes
	system time =       5.19 seconds =       0.09 minutes
	total time  =        285 seconds =       4.75 minutes
  Constructing Basis Sets for SAPT...

   => Loading Basis Set <=

    Name: (AUG-CC-PVTZ AUX)
    Role: RIFIT
    Keyword: DF_BASIS_SAPT
    atoms 1-2, 10-11 entry C          line   148 file /home/kchung25/anaconda3/envs/p415env/share/psi4/basis/aug-cc-pvtz-ri.gbs 
    atoms 3, 12      entry O          line   264 file /home/kchung25/anaconda3/envs/p415env/share/psi4/basis/aug-cc-pvtz-ri.gbs 
    atoms 4-9, 13-18 entry H          line    30 file /home/kchung25/anaconda3/envs/p415env/share/psi4/basis/aug-cc-pvtz-ri.gbs 

   => Loading Basis Set <=

    Name: (AUG-CC-PVTZ AUX)
    Role: JKFIT
    Keyword: DF_BASIS_ELST
    atoms 1-2, 10-11 entry C          line   162 file /home/kchung25/anaconda3/envs/p415env/share/psi4/basis/aug-cc-pvtz-jkfit.gbs 
    atoms 3, 12      entry O          line   286 file /home/kchung25/anaconda3/envs/p415env/share/psi4/basis/aug-cc-pvtz-jkfit.gbs 
    atoms 4-9, 13-18 entry H          line    70 file /home/kchung25/anaconda3/envs/p415env/share/psi4/basis/aug-cc-pvtz-jkfit.gbs 


  //>>>>>>>>>>>>>>>>>>>>>>>>>>>>>>>>>>>//
  //               SAPT2+              //
  //<<<<<<<<<<<<<<<<<<<<<<<<<<<<<<<<<<<//


*** tstart() called on moses-razer
*** at Sun Mar  2 09:40:19 2025

        SAPT2+  
    Ed Hohenstein
     6 June 2009

      Orbital Information
  --------------------------
    NSO        =       552
    NMO        =       552
    NRI        =      1188
    NOCC A     =        13
    NOCC B     =        13
    FOCC A     =         0
    FOCC B     =         0
    NVIR A     =       539
    NVIR B     =       539

    Estimated memory usage: 3939.5 MB

    Natural Orbital Cutoff:   1.000E-06
    Disp(T3) Truncation:            Yes
    CCD (vv|vv) Truncation:         Yes
    MBPT T2 Truncation:             Yes

    Monomer A: 306 virtual orbitals dropped
    Monomer B: 306 virtual orbitals dropped

    Elst10,r            =    -0.003101519086 [Eh]
    Exch10 (S^2)        =     0.006147176630 [Eh]
    Exch10              =     0.006160169432 [Eh]
    Ind20,r (A<-B)      =    -0.001010266197 [Eh]
    Ind20,r (B<-A)      =    -0.000524243159 [Eh]
    Ind20,r             =    -0.001534509356 [Eh]
    Exch-Ind20,r (A<-B) =     0.000662464550 [Eh]
    Exch-Ind20,r (B<-A) =     0.000430414989 [Eh]
    Exch-Ind20,r        =     0.001092879540 [Eh]
    Disp20              =    -0.006459250401 [Eh]
    Disp20 (NO)         =    -0.005788437265 [Eh]
    Exch-Disp20         =     0.000673682395 [Eh]
    Elst12,r            =    -0.000340162360 [Eh]
    Exch11              =     0.000094269535 [Eh]
    Exch12              =     0.000776236915 [Eh]
    Ind22               =    -0.000242168454 [Eh]
    Disp21              =     0.000288645481 [Eh]
    Disp22 (SDQ)        =     0.000151923648 [Eh]

    (i =   1 of  13)        212 seconds
    (i =   2 of  13)        423 seconds
    (i =   3 of  13)        633 seconds
    (i =   4 of  13)        843 seconds
    (i =   5 of  13)       1050 seconds
    (i =   6 of  13)       1260 seconds
    (i =   7 of  13)       1467 seconds
    (i =   8 of  13)       1674 seconds
    (i =   9 of  13)       1862 seconds
    (i =  10 of  13)       2049 seconds
    (i =  11 of  13)       2235 seconds
    (i =  12 of  13)       2421 seconds
    (i =  13 of  13)       2608 seconds

    Disp220 (T)         =    -0.000420200283 [Eh]

    (i =   1 of  13)        186 seconds
    (i =   2 of  13)        372 seconds
    (i =   3 of  13)        559 seconds
    (i =   4 of  13)        745 seconds
    (i =   5 of  13)        931 seconds
    (i =   6 of  13)       1117 seconds
    (i =   7 of  13)       1304 seconds
    (i =   8 of  13)       1481 seconds
    (i =   9 of  13)       1646 seconds
    (i =  10 of  13)       1811 seconds
    (i =  11 of  13)       1977 seconds
    (i =  12 of  13)       2142 seconds
    (i =  13 of  13)       2307 seconds

    Disp202 (T)         =    -0.000490125539 [Eh]

    Disp22 (T)          =    -0.000910325822 [Eh]

    Est. Disp220 (T)    =    -0.000468896651 [Eh]
    Est. Disp202 (T)    =    -0.000546925437 [Eh]

    Est. Disp22 (T)     =    -0.001015822088 [Eh]

    SAPT Results 
  --------------------------------------------------------------------------------------------------------
    Electrostatics                 -3.44168145 [mEh]      -2.15968771 [kcal/mol]      -9.03613339 [kJ/mol]
      Elst10,r                     -3.10151909 [mEh]      -1.94623261 [kcal/mol]      -8.14303724 [kJ/mol]
      Elst12,r                     -0.34016236 [mEh]      -0.21345510 [kcal/mol]      -0.89309615 [kJ/mol]

    Exchange                        7.03067588 [mEh]       4.41181572 [kcal/mol]      18.45903698 [kJ/mol]
      Exch10                        6.16016943 [mEh]       3.86556468 [kcal/mol]      16.17352261 [kJ/mol]
      Exch10(S^2)                   6.14717663 [mEh]       3.85741157 [kcal/mol]      16.13941002 [kJ/mol]
      Exch11(S^2)                   0.09426953 [mEh]       0.05915503 [kcal/mol]       0.24750463 [kJ/mol]
      Exch12(S^2)                   0.77623691 [mEh]       0.48709602 [kcal/mol]       2.03800974 [kJ/mol]

    Induction                      -0.95199293 [mEh]      -0.59738459 [kcal/mol]      -2.49945710 [kJ/mol]
      Ind20,r                      -1.53450936 [mEh]      -0.96291916 [kcal/mol]      -4.02885376 [kJ/mol]
      Ind22                        -0.24216845 [mEh]      -0.15196300 [kcal/mol]      -0.63581319 [kJ/mol]
      Exch-Ind20,r                  1.09287954 [mEh]       0.68579226 [kcal/mol]       2.86935484 [kJ/mol]
      Exch-Ind22                    0.17247268 [mEh]       0.10822824 [kcal/mol]       0.45282697 [kJ/mol]
      delta HF,r (2)               -0.44066735 [mEh]      -0.27652294 [kcal/mol]      -1.15697197 [kJ/mol]

    Dispersion                     -6.36082096 [mEh]      -3.99147542 [kcal/mol]     -16.70033314 [kJ/mol]
      Disp20                       -6.45925040 [mEh]      -4.05324082 [kcal/mol]     -16.95875959 [kJ/mol]
      Disp21                        0.28864548 [mEh]       0.18112777 [kcal/mol]       0.75783861 [kJ/mol]
      Disp22 (SDQ)                  0.15192365 [mEh]       0.09533353 [kcal/mol]       0.39887548 [kJ/mol]
      Disp22 (T)                   -0.91032582 [mEh]      -0.57123808 [kcal/mol]      -2.39006012 [kJ/mol]
      Est. Disp22 (T)              -1.01582209 [mEh]      -0.63743798 [kcal/mol]      -2.66704052 [kJ/mol]
      Exch-Disp20                   0.67368240 [mEh]       0.42274209 [kcal/mol]       1.76875289 [kJ/mol]

  Total HF                          2.17635318 [mEh]       1.36568224 [kcal/mol]       5.71401449 [kJ/mol]
  Total SAPT0                      -3.60921482 [mEh]      -2.26481650 [kcal/mol]      -9.47599222 [kJ/mol]
  Total SAPT2                      -3.14856650 [mEh]      -1.97575531 [kcal/mol]      -8.26656022 [kJ/mol]
  Total SAPT2+                     -3.72381946 [mEh]      -2.33673199 [kcal/mol]      -9.77688665 [kJ/mol]

  Special recipe for scaled SAPT0 (see Manual):
    Electrostatics sSAPT0          -3.10151909 [mEh]      -1.94623261 [kcal/mol]      -8.14303724 [kJ/mol]
    Exchange sSAPT0                 6.16016943 [mEh]       3.86556468 [kcal/mol]      16.17352261 [kJ/mol]
    Induction sSAPT0               -0.87535271 [mEh]      -0.54929212 [kcal/mol]      -2.29823822 [kJ/mol]
    Dispersion sSAPT0              -5.78128724 [mEh]      -3.62781252 [kcal/mol]     -15.17876756 [kJ/mol]
  Total sSAPT0                     -3.59798961 [mEh]      -2.25777256 [kcal/mol]      -9.44652041 [kJ/mol]
  --------------------------------------------------------------------------------------------------------

*** tstop() called on moses-razer at Sun Mar  2 11:25:32 2025
Module time:
	user time   =    6181.40 seconds =     103.02 minutes
	system time =      93.82 seconds =       1.56 minutes
	total time  =       6313 seconds =     105.22 minutes
Total time:
	user time   =    6461.19 seconds =     107.69 minutes
	system time =      99.01 seconds =       1.65 minutes
	total time  =       6598 seconds =     109.97 minutes

    Psi4 stopped on: Sunday, 02 March 2025 11:25AM
    Psi4 wall time for execution: 1:49:58.31

*** Psi4 exiting successfully. Buy a developer a beer!
