
    -----------------------------------------------------------------------
          Psi4: An Open-Source Ab Initio Electronic Structure Package
                               Psi4 1.9 release

                         Git: Rev {} zzzzzzz 


    D. G. A. Smith, L. A. Burns, A. C. Simmonett, R. M. Parrish,
    M. C. Schieber, R. Galvelis, P. Kraus, H. Kruse, R. Di Remigio,
    A. Alenaizan, A. M. James, S. Lehtola, J. P. Misiewicz, M. Scheurer,
    R. A. Shaw, J. B. Schriber, Y. Xie, Z. L. Glick, D. A. Sirianni,
    J. S. O'Brien, J. M. Waldrop, A. Kumar, E. G. Hohenstein,
    B. P. Pritchard, B. R. Brooks, H. F. Schaefer III, A. Yu. Sokolov,
    K. Patkowski, A. E. DePrince III, U. Bozkaya, R. A. King,
    F. A. Evangelista, J. M. Turney, T. D. Crawford, C. D. Sherrill,
    J. Chem. Phys. 152(18) 184108 (2020). https://doi.org/10.1063/5.0006002

                            Additional Code Authors
    E. T. Seidl, C. L. Janssen, E. F. Valeev, M. L. Leininger,
    J. F. Gonthier, R. M. Richard, H. R. McAlexander, M. Saitow, X. Wang,
    P. Verma, M. H. Lechner, A. Jiang, S. Behnle, A. G. Heide,
    M. F. Herbst, and D. L. Poole

             Previous Authors, Complete List of Code Contributors,
                       and Citations for Specific Modules
    https://github.com/psi4/psi4/blob/master/codemeta.json
    https://github.com/psi4/psi4/graphs/contributors
    http://psicode.org/psi4manual/master/introduction.html#citing-psifour

    -----------------------------------------------------------------------


    Psi4 started on: Saturday, 01 March 2025 11:56AM

    Process ID: 189537
    Host:       moses-razer
    PSIDATADIR: /home/kchung25/anaconda3/envs/psi4_19/share/psi4
    Memory:     500.0 MiB
    Threads:    1
    
  ==> Input File <==

--------------------------------------------------------------------------
MEMORY 10 GB

molecule dimer {
0 1
C    3.091608  -0.342234   0.342496
C    1.814243   0.409338   0.088232
O    0.991026  -0.373677  -0.734281
H    0.159052   0.105580  -0.864495
H    3.767231   0.232535   0.978342
H    3.599214  -0.554477  -0.600236
H    2.880557  -1.295081   0.831645
H    2.039216   1.378884  -0.384019
H    1.317600   0.635034   1.047193
--
0 1
C   -2.437412  -1.052507  -0.034130
C   -1.988643   0.222921   0.618674
O   -1.453155   1.068303  -0.390085
H   -1.235118   1.920523  -0.005591
H   -2.870756  -1.728542   0.704209
H   -1.592558  -1.558597  -0.505015
H   -3.188197  -0.847469  -0.799105
H   -1.227429   0.010861   1.382310
H   -2.830557   0.718637   1.118065

units ang
no_reorient
no_com
symmetry c1
}

set {
basis        aug-cc-pVTZ
scf_type     df
}

energy("sapt2+")
--------------------------------------------------------------------------

  Memory set to   9.313 GiB by Python driver.

Scratch directory: /scratch/
   => Loading Basis Set <=

    Name: AUG-CC-PVTZ
    Role: ORBITAL
    Keyword: BASIS
    atoms 1-2, 10-11 entry C          line   239 file /home/kchung25/anaconda3/envs/p415env/share/psi4/basis/aug-cc-pvtz.gbs 
    atoms 3, 12      entry O          line   331 file /home/kchung25/anaconda3/envs/p415env/share/psi4/basis/aug-cc-pvtz.gbs 
    atoms 4-9, 13-18 entry H          line    40 file /home/kchung25/anaconda3/envs/p415env/share/psi4/basis/aug-cc-pvtz.gbs 

   => Loading Basis Set <=

    Name: AUG-CC-PVTZ
    Role: ORBITAL
    Keyword: BASIS
    atoms 1-2, 10-11 entry C          line   239 file /home/kchung25/anaconda3/envs/p415env/share/psi4/basis/aug-cc-pvtz.gbs 
    atoms 3, 12      entry O          line   331 file /home/kchung25/anaconda3/envs/p415env/share/psi4/basis/aug-cc-pvtz.gbs 
    atoms 4-9, 13-18 entry H          line    40 file /home/kchung25/anaconda3/envs/p415env/share/psi4/basis/aug-cc-pvtz.gbs 


  //>>>>>>>>>>>>>>>>>>>>>>>>>>>>>>>>>>>//
  //              Dimer HF             //
  //<<<<<<<<<<<<<<<<<<<<<<<<<<<<<<<<<<<//

   => Libint2 <=

    Primary   basis highest AM E, G, H:  5, 4, 3
    Auxiliary basis highest AM E, G, H:  6, 5, 4
    Onebody   basis highest AM E, G, H:  6, 5, 4
    Solid Harmonics ordering:            gaussian

*** tstart() called on moses-razer
*** at Sat Mar  1 11:56:59 2025

   => Loading Basis Set <=

    Name: AUG-CC-PVTZ
    Role: ORBITAL
    Keyword: BASIS
    atoms 1-2, 10-11 entry C          line   239 file /home/kchung25/anaconda3/envs/p415env/share/psi4/basis/aug-cc-pvtz.gbs 
    atoms 3, 12      entry O          line   331 file /home/kchung25/anaconda3/envs/p415env/share/psi4/basis/aug-cc-pvtz.gbs 
    atoms 4-9, 13-18 entry H          line    40 file /home/kchung25/anaconda3/envs/p415env/share/psi4/basis/aug-cc-pvtz.gbs 


         ---------------------------------------------------------
                                   SCF
               by Justin Turney, Rob Parrish, Andy Simmonett
                          and Daniel G. A. Smith
                              RHF Reference
                        1 Threads,   9536 MiB Core
         ---------------------------------------------------------

  ==> Geometry <==

    Molecular point group: c1
    Full point group: C1

    Geometry (in Angstrom), charge = 0, multiplicity = 1:

       Center              X                  Y                   Z               Mass       
    ------------   -----------------  -----------------  -----------------  -----------------
         C            3.091608000000    -0.342234000000     0.342496000000    12.000000000000
         C            1.814243000000     0.409338000000     0.088232000000    12.000000000000
         O            0.991026000000    -0.373677000000    -0.734281000000    15.994914619570
         H            0.159052000000     0.105580000000    -0.864495000000     1.007825032230
         H            3.767231000000     0.232535000000     0.978342000000     1.007825032230
         H            3.599214000000    -0.554477000000    -0.600236000000     1.007825032230
         H            2.880557000000    -1.295081000000     0.831645000000     1.007825032230
         H            2.039216000000     1.378884000000    -0.384019000000     1.007825032230
         H            1.317600000000     0.635034000000     1.047193000000     1.007825032230
         C           -2.437412000000    -1.052507000000    -0.034130000000    12.000000000000
         C           -1.988643000000     0.222921000000     0.618674000000    12.000000000000
         O           -1.453155000000     1.068303000000    -0.390085000000    15.994914619570
         H           -1.235118000000     1.920523000000    -0.005591000000     1.007825032230
         H           -2.870756000000    -1.728542000000     0.704209000000     1.007825032230
         H           -1.592558000000    -1.558597000000    -0.505015000000     1.007825032230
         H           -3.188197000000    -0.847469000000    -0.799105000000     1.007825032230
         H           -1.227429000000     0.010861000000     1.382310000000     1.007825032230
         H           -2.830557000000     0.718637000000     1.118065000000     1.007825032230

  Running in c1 symmetry.

  Rotational constants: A =      0.21522  B =      0.03993  C =      0.03755 [cm^-1]
  Rotational constants: A =   6452.20679  B =   1197.06739  C =   1125.64213 [MHz]
  Nuclear repulsion =  255.429180376904583

  Charge       = 0
  Multiplicity = 1
  Electrons    = 52
  Nalpha       = 26
  Nbeta        = 26

  ==> Algorithm <==

  SCF Algorithm Type is DF.
  DIIS enabled.
  MOM disabled.
  Fractional occupation disabled.
  Guess Type is SAD.
  Energy threshold   = 1.00e-08
  Density threshold  = 1.00e-08
  Integral threshold = 1.00e-12

  ==> Primary Basis <==

  Basis Set: AUG-CC-PVTZ
    Blend: AUG-CC-PVTZ
    Number of shells: 192
    Number of basis functions: 552
    Number of Cartesian functions: 630
    Spherical Harmonics?: true
    Max angular momentum: 3

   => Loading Basis Set <=

    Name: (AUG-CC-PVTZ AUX)
    Role: JKFIT
    Keyword: DF_BASIS_SCF
    atoms 1-2, 10-11 entry C          line   162 file /home/kchung25/anaconda3/envs/p415env/share/psi4/basis/aug-cc-pvtz-jkfit.gbs 
    atoms 3, 12      entry O          line   286 file /home/kchung25/anaconda3/envs/p415env/share/psi4/basis/aug-cc-pvtz-jkfit.gbs 
    atoms 4-9, 13-18 entry H          line    70 file /home/kchung25/anaconda3/envs/p415env/share/psi4/basis/aug-cc-pvtz-jkfit.gbs 

  ==> Integral Setup <==

  ==> DiskDFJK: Density-Fitted J/K Matrices <==

    J tasked:                  Yes
    K tasked:                  Yes
    wK tasked:                  No
    OpenMP threads:              1
    Integrals threads:           1
    Memory [MiB]:             7152
    Algorithm:                Core
    Integral Cache:           SAVE
    Schwarz Cutoff:          1E-12
    Fitting Condition:       1E-10

   => Auxiliary Basis Set <=

  Basis Set: (AUG-CC-PVTZ AUX)
    Blend: AUG-CC-PVTZ-JKFIT
    Number of shells: 348
    Number of basis functions: 1176
    Number of Cartesian functions: 1446
    Spherical Harmonics?: true
    Max angular momentum: 4

  Minimum eigenvalue in the overlap matrix is 1.0073732622E-05.
  Reciprocal condition number of the overlap matrix is 5.5881144357E-07.
    Using symmetric orthogonalization.

  ==> Pre-Iterations <==

  SCF Guess: Superposition of Atomic Densities via on-the-fly atomic UHF (no occupation information).

   -------------------------
    Irrep   Nso     Nmo    
   -------------------------
     A        552     552 
   -------------------------
    Total     552     552
   -------------------------

  ==> Iterations <==

                           Total Energy        Delta E     RMS |[F,P]|

   @DF-RHF iter SAD:  -307.08646137378537   -3.07086e+02   0.00000e+00 
   @DF-RHF iter   1:  -308.01264882364637   -9.26187e-01   1.31998e-03 DIIS/ADIIS
   @DF-RHF iter   2:  -308.23305548892495   -2.20407e-01   6.98179e-04 DIIS/ADIIS
   @DF-RHF iter   3:  -308.29041256852122   -5.73571e-02   1.17380e-04 DIIS/ADIIS
   @DF-RHF iter   4:  -308.29354421866543   -3.13165e-03   4.30327e-05 DIIS
   @DF-RHF iter   5:  -308.29386545433084   -3.21236e-04   8.20863e-06 DIIS
   @DF-RHF iter   6:  -308.29388505962640   -1.96053e-05   1.80283e-06 DIIS
   @DF-RHF iter   7:  -308.29388617662528   -1.11700e-06   5.50130e-07 DIIS
   @DF-RHF iter   8:  -308.29388626329296   -8.66677e-08   1.54406e-07 DIIS
   @DF-RHF iter   9:  -308.29388627183084   -8.53788e-09   3.86241e-08 DIIS
   @DF-RHF iter  10:  -308.29388627240758   -5.76733e-10   1.05976e-08 DIIS
   @DF-RHF iter  11:  -308.29388627243151   -2.39311e-11   4.49808e-09 DIIS
  Energy and wave function converged.


  ==> Post-Iterations <==

    Orbital Energies [Eh]
    ---------------------

    Doubly Occupied:                                                      

       1A    -20.576782     2A    -20.532615     3A    -11.285182  
       4A    -11.264021     5A    -11.215946     6A    -11.203888  
       7A     -1.382338     8A     -1.343433     9A     -1.024363  
      10A     -1.003888    11A     -0.844200    12A     -0.822454  
      13A     -0.721488    14A     -0.696395    15A     -0.653756  
      16A     -0.633101    17A     -0.590015    18A     -0.563643  
      19A     -0.541068    20A     -0.534831    21A     -0.525185  
      22A     -0.514378    23A     -0.502602    24A     -0.477885  
      25A     -0.454456    26A     -0.423297  

    Virtual:                                                              

      27A      0.024667    28A      0.035593    29A      0.036976  
      30A      0.040941    31A      0.050338    32A      0.052652  
      33A      0.054219    34A      0.064377    35A      0.070474  
      36A      0.076301    37A      0.080134    38A      0.087495  
      39A      0.104053    40A      0.111749    41A      0.119967  
      42A      0.129185    43A      0.130630    44A      0.131865  
      45A      0.139750    46A      0.145829    47A      0.146755  
      48A      0.150329    49A      0.157888    50A      0.158414  
      51A      0.167342    52A      0.176436    53A      0.185907  
      54A      0.190055    55A      0.203276    56A      0.213518  
      57A      0.223844    58A      0.226822    59A      0.231513  
      60A      0.242591    61A      0.253940    62A      0.257610  
      63A      0.266188    64A      0.267913    65A      0.271082  
      66A      0.286308    67A      0.291941    68A      0.295815  
      69A      0.302553    70A      0.306807    71A      0.314377  
      72A      0.315516    73A      0.329124    74A      0.329940  
      75A      0.338028    76A      0.351072    77A      0.352696  
      78A      0.356622    79A      0.364307    80A      0.365888  
      81A      0.369887    82A      0.371794    83A      0.381236  
      84A      0.387997    85A      0.390466    86A      0.396666  
      87A      0.401875    88A      0.407261    89A      0.412642  
      90A      0.415575    91A      0.418748    92A      0.427802  
      93A      0.433152    94A      0.436408    95A      0.442813  
      96A      0.446165    97A      0.447909    98A      0.455540  
      99A      0.457927   100A      0.465271   101A      0.466793  
     102A      0.473274   103A      0.484851   104A      0.488675  
     105A      0.491742   106A      0.500253   107A      0.501494  
     108A      0.504777   109A      0.509896   110A      0.519365  
     111A      0.520637   112A      0.525754   113A      0.530883  
     114A      0.536999   115A      0.539931   116A      0.545924  
     117A      0.554257   118A      0.555380   119A      0.569965  
     120A      0.570906   121A      0.579825   122A      0.584858  
     123A      0.600887   124A      0.602759   125A      0.614827  
     126A      0.619757   127A      0.626285   128A      0.634515  
     129A      0.637582   130A      0.656155   131A      0.670446  
     132A      0.674842   133A      0.685273   134A      0.704736  
     135A      0.736560   136A      0.742503   137A      0.758809  
     138A      0.775357   139A      0.779799   140A      0.790347  
     141A      0.795638   142A      0.806971   143A      0.819387  
     144A      0.824523   145A      0.829856   146A      0.840047  
     147A      0.842651   148A      0.847948   149A      0.851943  
     150A      0.858632   151A      0.865548   152A      0.874488  
     153A      0.883181   154A      0.890769   155A      0.896266  
     156A      0.900528   157A      0.904009   158A      0.910705  
     159A      0.920595   160A      0.921883   161A      0.928537  
     162A      0.931380   163A      0.944988   164A      0.950929  
     165A      0.956045   166A      0.964513   167A      0.969463  
     168A      0.977602   169A      0.981916   170A      0.986496  
     171A      1.000586   172A      1.008185   173A      1.013098  
     174A      1.024183   175A      1.026304   176A      1.040645  
     177A      1.045318   178A      1.050986   179A      1.054391  
     180A      1.064695   181A      1.071865   182A      1.079091  
     183A      1.089448   184A      1.099715   185A      1.101419  
     186A      1.111954   187A      1.114056   188A      1.121775  
     189A      1.126957   190A      1.136333   191A      1.143067  
     192A      1.147074   193A      1.157885   194A      1.162889  
     195A      1.167080   196A      1.169323   197A      1.183010  
     198A      1.188059   199A      1.199694   200A      1.208281  
     201A      1.216485   202A      1.226224   203A      1.235252  
     204A      1.238460   205A      1.252755   206A      1.257861  
     207A      1.269892   208A      1.279332   209A      1.282055  
     210A      1.286057   211A      1.294943   212A      1.300672  
     213A      1.304924   214A      1.323405   215A      1.327303  
     216A      1.338403   217A      1.338815   218A      1.348338  
     219A      1.373620   220A      1.383820   221A      1.400513  
     222A      1.406745   223A      1.411488   224A      1.426233  
     225A      1.433540   226A      1.447572   227A      1.450766  
     228A      1.454754   229A      1.461200   230A      1.467453  
     231A      1.478628   232A      1.486866   233A      1.511744  
     234A      1.528681   235A      1.538173   236A      1.553428  
     237A      1.561338   238A      1.568312   239A      1.578142  
     240A      1.585583   241A      1.605868   242A      1.611173  
     243A      1.621551   244A      1.636612   245A      1.648297  
     246A      1.650705   247A      1.655792   248A      1.670217  
     249A      1.676568   250A      1.687003   251A      1.691073  
     252A      1.702383   253A      1.706110   254A      1.710833  
     255A      1.722447   256A      1.726207   257A      1.730413  
     258A      1.735063   259A      1.749661   260A      1.760230  
     261A      1.764631   262A      1.782209   263A      1.785647  
     264A      1.797602   265A      1.809086   266A      1.816815  
     267A      1.831440   268A      1.845764   269A      1.851639  
     270A      1.857177   271A      1.867409   272A      1.878827  
     273A      1.889340   274A      1.898004   275A      1.903662  
     276A      1.924437   277A      1.930276   278A      1.933039  
     279A      1.951148   280A      1.976779   281A      1.977992  
     282A      1.992289   283A      1.997087   284A      2.006795  
     285A      2.018031   286A      2.035515   287A      2.057266  
     288A      2.071948   289A      2.091357   290A      2.109026  
     291A      2.122085   292A      2.129013   293A      2.144851  
     294A      2.166354   295A      2.174821   296A      2.191707  
     297A      2.193584   298A      2.210589   299A      2.219731  
     300A      2.233343   301A      2.241029   302A      2.250819  
     303A      2.263372   304A      2.266330   305A      2.280802  
     306A      2.289212   307A      2.299560   308A      2.330332  
     309A      2.336299   310A      2.354258   311A      2.370521  
     312A      2.397173   313A      2.420898   314A      2.438769  
     315A      2.445728   316A      2.469111   317A      2.483686  
     318A      2.487807   319A      2.558542   320A      2.620266  
     321A      2.629641   322A      2.659794   323A      2.700156  
     324A      2.713913   325A      2.735609   326A      2.743993  
     327A      2.784471   328A      2.801463   329A      2.824304  
     330A      2.847341   331A      2.867926   332A      2.910780  
     333A      2.917089   334A      2.939623   335A      2.967110  
     336A      2.982428   337A      2.989472   338A      3.012605  
     339A      3.039344   340A      3.076172   341A      3.076849  
     342A      3.093967   343A      3.117083   344A      3.131042  
     345A      3.161522   346A      3.210803   347A      3.249934  
     348A      3.269208   349A      3.283594   350A      3.322007  
     351A      3.360980   352A      3.406652   353A      3.436313  
     354A      3.444353   355A      3.458392   356A      3.471299  
     357A      3.477149   358A      3.494825   359A      3.520096  
     360A      3.532521   361A      3.605115   362A      3.611593  
     363A      3.618913   364A      3.637202   365A      3.651742  
     366A      3.667447   367A      3.681893   368A      3.692784  
     369A      3.700125   370A      3.719495   371A      3.724287  
     372A      3.737847   373A      3.747661   374A      3.772757  
     375A      3.775569   376A      3.783604   377A      3.803620  
     378A      3.811620   379A      3.828535   380A      3.843352  
     381A      3.861873   382A      3.885646   383A      3.900111  
     384A      3.914995   385A      3.953036   386A      3.962545  
     387A      3.967065   388A      3.981405   389A      3.983062  
     390A      3.990055   391A      4.005306   392A      4.014032  
     393A      4.030356   394A      4.058650   395A      4.067597  
     396A      4.086742   397A      4.108304   398A      4.118897  
     399A      4.130596   400A      4.147122   401A      4.150119  
     402A      4.154809   403A      4.178697   404A      4.182191  
     405A      4.196059   406A      4.213639   407A      4.222810  
     408A      4.228848   409A      4.246473   410A      4.262330  
     411A      4.273421   412A      4.291873   413A      4.323589  
     414A      4.339443   415A      4.356155   416A      4.374023  
     417A      4.389848   418A      4.404868   419A      4.429763  
     420A      4.474955   421A      4.481665   422A      4.484173  
     423A      4.516271   424A      4.528396   425A      4.548695  
     426A      4.558931   427A      4.580215   428A      4.584416  
     429A      4.592961   430A      4.614029   431A      4.640026  
     432A      4.665603   433A      4.680135   434A      4.696904  
     435A      4.709163   436A      4.740843   437A      4.745145  
     438A      4.764911   439A      4.799741   440A      4.815790  
     441A      4.828686   442A      4.830388   443A      4.847156  
     444A      4.856122   445A      4.859859   446A      4.870633  
     447A      4.879713   448A      4.907337   449A      4.930480  
     450A      4.938475   451A      4.947475   452A      4.969524  
     453A      5.007403   454A      5.036572   455A      5.050990  
     456A      5.067354   457A      5.082227   458A      5.098225  
     459A      5.113526   460A      5.144255   461A      5.146677  
     462A      5.157831   463A      5.171086   464A      5.186542  
     465A      5.190340   466A      5.217247   467A      5.225388  
     468A      5.234664   469A      5.255383   470A      5.315176  
     471A      5.333581   472A      5.341066   473A      5.357416  
     474A      5.366851   475A      5.370559   476A      5.395381  
     477A      5.401501   478A      5.426266   479A      5.458120  
     480A      5.467847   481A      5.506915   482A      5.509456  
     483A      5.542617   484A      5.553092   485A      5.567071  
     486A      5.599375   487A      5.612643   488A      5.627987  
     489A      5.674146   490A      5.735245   491A      5.744916  
     492A      5.765487   493A      5.773051   494A      5.812429  
     495A      5.821016   496A      5.857140   497A      5.865032  
     498A      5.885572   499A      6.007964   500A      6.023219  
     501A      6.040863   502A      6.042700   503A      6.074986  
     504A      6.105932   505A      6.157957   506A      6.169998  
     507A      6.197120   508A      6.212476   509A      6.250718  
     510A      6.261845   511A      6.313437   512A      6.362551  
     513A      6.421531   514A      6.431721   515A      6.715540  
     516A      6.727129   517A      6.732992   518A      6.759893  
     519A      6.803379   520A      6.819203   521A      6.863416  
     522A      6.881494   523A      7.006962   524A      7.027167  
     525A      7.058252   526A      7.091395   527A      7.194148  
     528A      7.224371   529A      7.349484   530A      7.379772  
     531A      7.428681   532A      7.480801   533A      7.536143  
     534A      7.577450   535A      7.607939   536A      7.653792  
     537A      7.685683   538A      7.715411   539A      7.845724  
     540A      7.913921   541A      7.993896   542A      8.117796  
     543A      8.277012   544A      8.347530   545A      8.648510  
     546A      8.676828   547A     16.298557   548A     16.640445  
     549A     18.021076   550A     18.119407   551A     18.368846  
     552A     18.534550  

    Final Occupation by Irrep:
              A 
    DOCC [    26 ]
    NA   [    26 ]
    NB   [    26 ]

  @DF-RHF Final Energy:  -308.29388627243151

   => Energetics <=

    Nuclear Repulsion Energy =            255.4291803769045828
    One-Electron Energy =                -926.7837116332988217
    Two-Electron Energy =                 363.0606449839627317
    Total Energy =                       -308.2938862724315072

Computation Completed


Properties will be evaluated at   0.000000,   0.000000,   0.000000 [a0]

Properties computed using the SCF density matrix


 Multipole Moments:

 ------------------------------------------------------------------------------------
     Multipole            Electronic (a.u.)      Nuclear  (a.u.)        Total (a.u.)
 ------------------------------------------------------------------------------------

 L = 1.  Multiply by 2.5417464519 to convert [e a0] to [Debye]
 Dipole X            :         -0.4870463           -0.0000019           -0.4870482
 Dipole Y            :          0.7219932            0.0000076            0.7220007
 Dipole Z            :          0.8851250            0.0000132            0.8851382
 Magnitude           :                                                    1.2417611

 ------------------------------------------------------------------------------------

*** tstop() called on moses-razer at Sat Mar  1 11:59:47 2025
Module time:
	user time   =     164.18 seconds =       2.74 minutes
	system time =       4.38 seconds =       0.07 minutes
	total time  =        168 seconds =       2.80 minutes
Total time:
	user time   =     164.18 seconds =       2.74 minutes
	system time =       4.38 seconds =       0.07 minutes
	total time  =        168 seconds =       2.80 minutes

  //>>>>>>>>>>>>>>>>>>>>>>>>>>>>>>>>>>>//
  //            Monomer A HF           //
  //<<<<<<<<<<<<<<<<<<<<<<<<<<<<<<<<<<<//

   => Libint2 <=

    Primary   basis highest AM E, G, H:  5, 4, 3
    Auxiliary basis highest AM E, G, H:  6, 5, 4
    Onebody   basis highest AM E, G, H:  6, 5, 4
    Solid Harmonics ordering:            gaussian

*** tstart() called on moses-razer
*** at Sat Mar  1 11:59:47 2025

   => Loading Basis Set <=

    Name: AUG-CC-PVTZ
    Role: ORBITAL
    Keyword: BASIS
    atoms 1-2, 10-11 entry C          line   239 file /home/kchung25/anaconda3/envs/p415env/share/psi4/basis/aug-cc-pvtz.gbs 
    atoms 3, 12      entry O          line   331 file /home/kchung25/anaconda3/envs/p415env/share/psi4/basis/aug-cc-pvtz.gbs 
    atoms 4-9, 13-18 entry H          line    40 file /home/kchung25/anaconda3/envs/p415env/share/psi4/basis/aug-cc-pvtz.gbs 


         ---------------------------------------------------------
                                   SCF
               by Justin Turney, Rob Parrish, Andy Simmonett
                          and Daniel G. A. Smith
                              RHF Reference
                        1 Threads,   9536 MiB Core
         ---------------------------------------------------------

  ==> Geometry <==

    Molecular point group: c1
    Full point group: C1

    Geometry (in Angstrom), charge = 0, multiplicity = 1:

       Center              X                  Y                   Z               Mass       
    ------------   -----------------  -----------------  -----------------  -----------------
         C            3.091608000000    -0.342234000000     0.342496000000    12.000000000000
         C            1.814243000000     0.409338000000     0.088232000000    12.000000000000
         O            0.991026000000    -0.373677000000    -0.734281000000    15.994914619570
         H            0.159052000000     0.105580000000    -0.864495000000     1.007825032230
         H            3.767231000000     0.232535000000     0.978342000000     1.007825032230
         H            3.599214000000    -0.554477000000    -0.600236000000     1.007825032230
         H            2.880557000000    -1.295081000000     0.831645000000     1.007825032230
         H            2.039216000000     1.378884000000    -0.384019000000     1.007825032230
         H            1.317600000000     0.635034000000     1.047193000000     1.007825032230
      Gh(C)          -2.437412000000    -1.052507000000    -0.034130000000    12.000000000000
      Gh(C)          -1.988643000000     0.222921000000     0.618674000000    12.000000000000
      Gh(O)          -1.453155000000     1.068303000000    -0.390085000000    15.994914619570
      Gh(H)          -1.235118000000     1.920523000000    -0.005591000000     1.007825032230
      Gh(H)          -2.870756000000    -1.728542000000     0.704209000000     1.007825032230
      Gh(H)          -1.592558000000    -1.558597000000    -0.505015000000     1.007825032230
      Gh(H)          -3.188197000000    -0.847469000000    -0.799105000000     1.007825032230
      Gh(H)          -1.227429000000     0.010861000000     1.382310000000     1.007825032230
      Gh(H)          -2.830557000000     0.718637000000     1.118065000000     1.007825032230

  Running in c1 symmetry.

  Rotational constants: A =      0.21522  B =      0.03993  C =      0.03755 [cm^-1]
  Rotational constants: A =   6452.20679  B =   1197.06739  C =   1125.64213 [MHz]
  Nuclear repulsion =   82.303760750972259

  Charge       = 0
  Multiplicity = 1
  Electrons    = 26
  Nalpha       = 13
  Nbeta        = 13

  ==> Algorithm <==

  SCF Algorithm Type is DF.
  DIIS enabled.
  MOM disabled.
  Fractional occupation disabled.
  Guess Type is SAD.
  Energy threshold   = 1.00e-08
  Density threshold  = 1.00e-08
  Integral threshold = 1.00e-12

  ==> Primary Basis <==

  Basis Set: AUG-CC-PVTZ
    Blend: AUG-CC-PVTZ
    Number of shells: 192
    Number of basis functions: 552
    Number of Cartesian functions: 630
    Spherical Harmonics?: true
    Max angular momentum: 3

   => Loading Basis Set <=

    Name: (AUG-CC-PVTZ AUX)
    Role: JKFIT
    Keyword: DF_BASIS_SCF
    atoms 1-2, 10-11 entry C          line   162 file /home/kchung25/anaconda3/envs/p415env/share/psi4/basis/aug-cc-pvtz-jkfit.gbs 
    atoms 3, 12      entry O          line   286 file /home/kchung25/anaconda3/envs/p415env/share/psi4/basis/aug-cc-pvtz-jkfit.gbs 
    atoms 4-9, 13-18 entry H          line    70 file /home/kchung25/anaconda3/envs/p415env/share/psi4/basis/aug-cc-pvtz-jkfit.gbs 

  ==> Integral Setup <==

  ==> DiskDFJK: Density-Fitted J/K Matrices <==

    J tasked:                  Yes
    K tasked:                  Yes
    wK tasked:                  No
    OpenMP threads:              1
    Integrals threads:           1
    Memory [MiB]:             7152
    Algorithm:                Core
    Integral Cache:           LOAD
    Schwarz Cutoff:          1E-12
    Fitting Condition:       1E-10

   => Auxiliary Basis Set <=

  Basis Set: (AUG-CC-PVTZ AUX)
    Blend: AUG-CC-PVTZ-JKFIT
    Number of shells: 348
    Number of basis functions: 1176
    Number of Cartesian functions: 1446
    Spherical Harmonics?: true
    Max angular momentum: 4

  Minimum eigenvalue in the overlap matrix is 1.0073732622E-05.
  Reciprocal condition number of the overlap matrix is 5.5881144356E-07.
    Using symmetric orthogonalization.

  ==> Pre-Iterations <==

  SCF Guess: Superposition of Atomic Densities via on-the-fly atomic UHF (no occupation information).

   -------------------------
    Irrep   Nso     Nmo    
   -------------------------
     A        552     552 
   -------------------------
    Total     552     552
   -------------------------

  ==> Iterations <==

                           Total Energy        Delta E     RMS |[F,P]|

   @DF-RHF iter SAD:  -153.45836270681258   -1.53458e+02   0.00000e+00 
   @DF-RHF iter   1:  -153.99756082888172   -5.39198e-01   9.60506e-04 DIIS/ADIIS
   @DF-RHF iter   2:  -154.11000679006767   -1.12446e-01   5.35771e-04 DIIS/ADIIS
   @DF-RHF iter   3:  -154.14319067885350   -3.31839e-02   8.46041e-05 DIIS
   @DF-RHF iter   4:  -154.14480200146880   -1.61132e-03   3.25277e-05 DIIS
   @DF-RHF iter   5:  -154.14498856852984   -1.86567e-04   5.82925e-06 DIIS
   @DF-RHF iter   6:  -154.14499846353519   -9.89501e-06   1.30888e-06 DIIS
   @DF-RHF iter   7:  -154.14499905336621   -5.89831e-07   4.07382e-07 DIIS
   @DF-RHF iter   8:  -154.14499910090467   -4.75385e-08   1.08948e-07 DIIS
   @DF-RHF iter   9:  -154.14499910543981   -4.53514e-09   2.59284e-08 DIIS
   @DF-RHF iter  10:  -154.14499910571618   -2.76373e-10   4.92820e-09 DIIS
  Energy and wave function converged.


  ==> Post-Iterations <==

    Orbital Energies [Eh]
    ---------------------

    Doubly Occupied:                                                      

       1A    -20.558048     2A    -11.273478     3A    -11.210667  
       4A     -1.364252     5A     -1.012815     6A     -0.832059  
       7A     -0.703378     8A     -0.645663     9A     -0.576525  
      10A     -0.534318    11A     -0.524861    12A     -0.487886  
      13A     -0.438505  

    Virtual:                                                              

      14A      0.019846    15A      0.034123    16A      0.035749  
      17A      0.037828    18A      0.050465    19A      0.050832  
      20A      0.052562    21A      0.063512    22A      0.069007  
      23A      0.074154    24A      0.076902    25A      0.082674  
      26A      0.090852    27A      0.106985    28A      0.109292  
      29A      0.118429    30A      0.123294    31A      0.129523  
      32A      0.130498    33A      0.141031    34A      0.142735  
      35A      0.142834    36A      0.147526    37A      0.157268  
      38A      0.158188    39A      0.166806    40A      0.178250  
      41A      0.187117    42A      0.192182    43A      0.204981  
      44A      0.214923    45A      0.223021    46A      0.226435  
      47A      0.234542    48A      0.249014    49A      0.252441  
      50A      0.255008    51A      0.262026    52A      0.271904  
      53A      0.272711    54A      0.287907    55A      0.292189  
      56A      0.299384    57A      0.307026    58A      0.309736  
      59A      0.313105    60A      0.317442    61A      0.322984  
      62A      0.334555    63A      0.335919    64A      0.342890  
      65A      0.347995    66A      0.351214    67A      0.355696  
      68A      0.362145    69A      0.363353    70A      0.375911  
      71A      0.378579    72A      0.388692    73A      0.390673  
      74A      0.396243    75A      0.401551    76A      0.405070  
      77A      0.411366    78A      0.418372    79A      0.422146  
      80A      0.427447    81A      0.432386    82A      0.438866  
      83A      0.445324    84A      0.448818    85A      0.453497  
      86A      0.462361    87A      0.466072    88A      0.471975  
      89A      0.475928    90A      0.483484    91A      0.485967  
      92A      0.494291    93A      0.498644    94A      0.503022  
      95A      0.508613    96A      0.514196    97A      0.518675  
      98A      0.528804    99A      0.530868   100A      0.542383  
     101A      0.549038   102A      0.553252   103A      0.563551  
     104A      0.569230   105A      0.576506   106A      0.582695  
     107A      0.586581   108A      0.587952   109A      0.599573  
     110A      0.622136   111A      0.624434   112A      0.633572  
     113A      0.638470   114A      0.645328   115A      0.648439  
     116A      0.656875   117A      0.663918   118A      0.665855  
     119A      0.675342   120A      0.682529   121A      0.690130  
     122A      0.694428   123A      0.704116   124A      0.713071  
     125A      0.730125   126A      0.773991   127A      0.780584  
     128A      0.787432   129A      0.797436   130A      0.803753  
     131A      0.814041   132A      0.825035   133A      0.835075  
     134A      0.844033   135A      0.845709   136A      0.859304  
     137A      0.873105   138A      0.879722   139A      0.889157  
     140A      0.893536   141A      0.899458   142A      0.909575  
     143A      0.910909   144A      0.918927   145A      0.930637  
     146A      0.933791   147A      0.940774   148A      0.950087  
     149A      0.963686   150A      0.971481   151A      0.980487  
     152A      0.983658   153A      0.999515   154A      1.003238  
     155A      1.012276   156A      1.016162   157A      1.020315  
     158A      1.025889   159A      1.040423   160A      1.044173  
     161A      1.054166   162A      1.057141   163A      1.064038  
     164A      1.077086   165A      1.083437   166A      1.087543  
     167A      1.097933   168A      1.103100   169A      1.112587  
     170A      1.118318   171A      1.127583   172A      1.132371  
     173A      1.136597   174A      1.143659   175A      1.149598  
     176A      1.155701   177A      1.163018   178A      1.167621  
     179A      1.173016   180A      1.180488   181A      1.184904  
     182A      1.188321   183A      1.197808   184A      1.204138  
     185A      1.206279   186A      1.221890   187A      1.228265  
     188A      1.233592   189A      1.241435   190A      1.248070  
     191A      1.257193   192A      1.259709   193A      1.275613  
     194A      1.278701   195A      1.290550   196A      1.297808  
     197A      1.303249   198A      1.315465   199A      1.320953  
     200A      1.325714   201A      1.333096   202A      1.335286  
     203A      1.350108   204A      1.353462   205A      1.365051  
     206A      1.386307   207A      1.388573   208A      1.406766  
     209A      1.411707   210A      1.412648   211A      1.429684  
     212A      1.434721   213A      1.449164   214A      1.453465  
     215A      1.457645   216A      1.467123   217A      1.489116  
     218A      1.493758   219A      1.501795   220A      1.513792  
     221A      1.516380   222A      1.533775   223A      1.543636  
     224A      1.553405   225A      1.565652   226A      1.573196  
     227A      1.583140   228A      1.600918   229A      1.607963  
     230A      1.609380   231A      1.639777   232A      1.652656  
     233A      1.655233   234A      1.664721   235A      1.667655  
     236A      1.682052   237A      1.691757   238A      1.696814  
     239A      1.707244   240A      1.721229   241A      1.728769  
     242A      1.734379   243A      1.742030   244A      1.748088  
     245A      1.763979   246A      1.784238   247A      1.793271  
     248A      1.803241   249A      1.826854   250A      1.829900  
     251A      1.835608   252A      1.846377   253A      1.861518  
     254A      1.866387   255A      1.875659   256A      1.882837  
     257A      1.895239   258A      1.901937   259A      1.919023  
     260A      1.936334   261A      1.946807   262A      1.956240  
     263A      1.962009   264A      1.975876   265A      1.996646  
     266A      2.003121   267A      2.022380   268A      2.035097  
     269A      2.040153   270A      2.059128   271A      2.065326  
     272A      2.073776   273A      2.110666   274A      2.119045  
     275A      2.126403   276A      2.138075   277A      2.152892  
     278A      2.163341   279A      2.180739   280A      2.189706  
     281A      2.196734   282A      2.197958   283A      2.214467  
     284A      2.222256   285A      2.235590   286A      2.248747  
     287A      2.255843   288A      2.265260   289A      2.274032  
     290A      2.298506   291A      2.307259   292A      2.328449  
     293A      2.340355   294A      2.358016   295A      2.376406  
     296A      2.383141   297A      2.420891   298A      2.435656  
     299A      2.447431   300A      2.453389   301A      2.474238  
     302A      2.503665   303A      2.514791   304A      2.524589  
     305A      2.574325   306A      2.613208   307A      2.646497  
     308A      2.653480   309A      2.673124   310A      2.688700  
     311A      2.708758   312A      2.730880   313A      2.734627  
     314A      2.744308   315A      2.766657   316A      2.789791  
     317A      2.835643   318A      2.841210   319A      2.851620  
     320A      2.870504   321A      2.911337   322A      2.949436  
     323A      2.959363   324A      2.976798   325A      3.005251  
     326A      3.018045   327A      3.062225   328A      3.069755  
     329A      3.079958   330A      3.114506   331A      3.128839  
     332A      3.150742   333A      3.166416   334A      3.206135  
     335A      3.255056   336A      3.285182   337A      3.300841  
     338A      3.332931   339A      3.367825   340A      3.392578  
     341A      3.424492   342A      3.449804   343A      3.468946  
     344A      3.475882   345A      3.500957   346A      3.521524  
     347A      3.576984   348A      3.589442   349A      3.609668  
     350A      3.629593   351A      3.657206   352A      3.682850  
     353A      3.691813   354A      3.713760   355A      3.717244  
     356A      3.746443   357A      3.760297   358A      3.782257  
     359A      3.813584   360A      3.828276   361A      3.850475  
     362A      3.865578   363A      3.901565   364A      3.947613  
     365A      3.967753   366A      3.976051   367A      3.981484  
     368A      3.996475   369A      4.053271   370A      4.063928  
     371A      4.104781   372A      4.113301   373A      4.130876  
     374A      4.138911   375A      4.145470   376A      4.163251  
     377A      4.173236   378A      4.180870   379A      4.213755  
     380A      4.220601   381A      4.224308   382A      4.245916  
     383A      4.254373   384A      4.274249   385A      4.296534  
     386A      4.320741   387A      4.325552   388A      4.345272  
     389A      4.379830   390A      4.381344   391A      4.403605  
     392A      4.433733   393A      4.442433   394A      4.461180  
     395A      4.469277   396A      4.482391   397A      4.493368  
     398A      4.524857   399A      4.542624   400A      4.554366  
     401A      4.568993   402A      4.580081   403A      4.593390  
     404A      4.627378   405A      4.633170   406A      4.651087  
     407A      4.654237   408A      4.678056   409A      4.681110  
     410A      4.701758   411A      4.725247   412A      4.731555  
     413A      4.750381   414A      4.777545   415A      4.788095  
     416A      4.807617   417A      4.816323   418A      4.847772  
     419A      4.854947   420A      4.873578   421A      4.877526  
     422A      4.903110   423A      4.915002   424A      4.923827  
     425A      4.924921   426A      4.963424   427A      4.970743  
     428A      5.004715   429A      5.010554   430A      5.039411  
     431A      5.049448   432A      5.058762   433A      5.079025  
     434A      5.092179   435A      5.134318   436A      5.150956  
     437A      5.159316   438A      5.160054   439A      5.181357  
     440A      5.192126   441A      5.212258   442A      5.240182  
     443A      5.247240   444A      5.264237   445A      5.299436  
     446A      5.330126   447A      5.347086   448A      5.356512  
     449A      5.359294   450A      5.382085   451A      5.384270  
     452A      5.408535   453A      5.435154   454A      5.451509  
     455A      5.462523   456A      5.492094   457A      5.514768  
     458A      5.517329   459A      5.536426   460A      5.556684  
     461A      5.569412   462A      5.576342   463A      5.597217  
     464A      5.614007   465A      5.635636   466A      5.661205  
     467A      5.692562   468A      5.724002   469A      5.739588  
     470A      5.754607   471A      5.760090   472A      5.767582  
     473A      5.803383   474A      5.831593   475A      5.851023  
     476A      5.915158   477A      5.962105   478A      5.967817  
     479A      5.998277   480A      6.010550   481A      6.037677  
     482A      6.054063   483A      6.094099   484A      6.140381  
     485A      6.144916   486A      6.159626   487A      6.205284  
     488A      6.210458   489A      6.243639   490A      6.291118  
     491A      6.317139   492A      6.337624   493A      6.410114  
     494A      6.467398   495A      6.561205   496A      6.708576  
     497A      6.751221   498A      6.797146   499A      6.805912  
     500A      6.854349   501A      6.874931   502A      6.897947  
     503A      6.996078   504A      7.023579   505A      7.062164  
     506A      7.101203   507A      7.123975   508A      7.171071  
     509A      7.201853   510A      7.290195   511A      7.390379  
     512A      7.467090   513A      7.588836   514A      7.606807  
     515A      7.674031   516A      7.779772   517A      7.841663  
     518A      7.851961   519A      7.873341   520A      7.908249  
     521A      7.931981   522A      7.963394   523A      8.020210  
     524A      8.039114   525A      8.172557   526A      8.234747  
     527A      8.265068   528A      8.293948   529A      8.334778  
     530A      8.383575   531A      8.434213   532A      8.583699  
     533A      8.649158   534A      8.853754   535A      9.039414  
     536A     10.032191   537A     10.136109   538A     10.351550  
     539A     10.415480   540A     10.442729   541A     10.797334  
     542A     11.045732   543A     12.095905   544A     12.451896  
     545A     13.277378   546A     14.141849   547A     16.562944  
     548A     18.111053   549A     18.456866   550A     53.118499  
     551A     54.121627   552A     66.869510  

    Final Occupation by Irrep:
              A 
    DOCC [    13 ]
    NA   [    13 ]
    NB   [    13 ]

  @DF-RHF Final Energy:  -154.14499910571618

   => Energetics <=

    Nuclear Repulsion Energy =             82.3037607509722591
    One-Electron Energy =                -372.5726081411320365
    Two-Electron Energy =                 136.1238482844435680
    Total Energy =                       -154.1449991057161810

Computation Completed


Properties will be evaluated at   0.000000,   0.000000,   0.000000 [a0]

Properties computed using the SCF density matrix


 Multipole Moments:

 ------------------------------------------------------------------------------------
     Multipole            Electronic (a.u.)      Nuclear  (a.u.)        Total (a.u.)
 ------------------------------------------------------------------------------------

 L = 1.  Multiply by 2.5417464519 to convert [e a0] to [Debye]
 Dipole X            :        -96.7686332           96.6144856           -0.1541476
 Dipole Y            :          4.5270622           -3.9387883            0.5882739
 Dipole Z            :          4.5647036           -4.3113157            0.2533879
 Magnitude           :                                                    0.6588119

 ------------------------------------------------------------------------------------

*** tstop() called on moses-razer at Sat Mar  1 12:01:27 2025
Module time:
	user time   =      98.60 seconds =       1.64 minutes
	system time =       1.33 seconds =       0.02 minutes
	total time  =        100 seconds =       1.67 minutes
Total time:
	user time   =     262.78 seconds =       4.38 minutes
	system time =       5.71 seconds =       0.10 minutes
	total time  =        268 seconds =       4.47 minutes

  //>>>>>>>>>>>>>>>>>>>>>>>>>>>>>>>>>>>//
  //            Monomer B HF           //
  //<<<<<<<<<<<<<<<<<<<<<<<<<<<<<<<<<<<//

   => Libint2 <=

    Primary   basis highest AM E, G, H:  5, 4, 3
    Auxiliary basis highest AM E, G, H:  6, 5, 4
    Onebody   basis highest AM E, G, H:  6, 5, 4
    Solid Harmonics ordering:            gaussian

*** tstart() called on moses-razer
*** at Sat Mar  1 12:01:27 2025

   => Loading Basis Set <=

    Name: AUG-CC-PVTZ
    Role: ORBITAL
    Keyword: BASIS
    atoms 1-2, 10-11 entry C          line   239 file /home/kchung25/anaconda3/envs/p415env/share/psi4/basis/aug-cc-pvtz.gbs 
    atoms 3, 12      entry O          line   331 file /home/kchung25/anaconda3/envs/p415env/share/psi4/basis/aug-cc-pvtz.gbs 
    atoms 4-9, 13-18 entry H          line    40 file /home/kchung25/anaconda3/envs/p415env/share/psi4/basis/aug-cc-pvtz.gbs 


         ---------------------------------------------------------
                                   SCF
               by Justin Turney, Rob Parrish, Andy Simmonett
                          and Daniel G. A. Smith
                              RHF Reference
                        1 Threads,   9536 MiB Core
         ---------------------------------------------------------

  ==> Geometry <==

    Molecular point group: c1
    Full point group: C1

    Geometry (in Angstrom), charge = 0, multiplicity = 1:

       Center              X                  Y                   Z               Mass       
    ------------   -----------------  -----------------  -----------------  -----------------
      Gh(C)           3.091608000000    -0.342234000000     0.342496000000    12.000000000000
      Gh(C)           1.814243000000     0.409338000000     0.088232000000    12.000000000000
      Gh(O)           0.991026000000    -0.373677000000    -0.734281000000    15.994914619570
      Gh(H)           0.159052000000     0.105580000000    -0.864495000000     1.007825032230
      Gh(H)           3.767231000000     0.232535000000     0.978342000000     1.007825032230
      Gh(H)           3.599214000000    -0.554477000000    -0.600236000000     1.007825032230
      Gh(H)           2.880557000000    -1.295081000000     0.831645000000     1.007825032230
      Gh(H)           2.039216000000     1.378884000000    -0.384019000000     1.007825032230
      Gh(H)           1.317600000000     0.635034000000     1.047193000000     1.007825032230
         C           -2.437412000000    -1.052507000000    -0.034130000000    12.000000000000
         C           -1.988643000000     0.222921000000     0.618674000000    12.000000000000
         O           -1.453155000000     1.068303000000    -0.390085000000    15.994914619570
         H           -1.235118000000     1.920523000000    -0.005591000000     1.007825032230
         H           -2.870756000000    -1.728542000000     0.704209000000     1.007825032230
         H           -1.592558000000    -1.558597000000    -0.505015000000     1.007825032230
         H           -3.188197000000    -0.847469000000    -0.799105000000     1.007825032230
         H           -1.227429000000     0.010861000000     1.382310000000     1.007825032230
         H           -2.830557000000     0.718637000000     1.118065000000     1.007825032230

  Running in c1 symmetry.

  Rotational constants: A =      0.21522  B =      0.03993  C =      0.03755 [cm^-1]
  Rotational constants: A =   6452.20679  B =   1197.06739  C =   1125.64213 [MHz]
  Nuclear repulsion =   82.099675890911158

  Charge       = 0
  Multiplicity = 1
  Electrons    = 26
  Nalpha       = 13
  Nbeta        = 13

  ==> Algorithm <==

  SCF Algorithm Type is DF.
  DIIS enabled.
  MOM disabled.
  Fractional occupation disabled.
  Guess Type is SAD.
  Energy threshold   = 1.00e-08
  Density threshold  = 1.00e-08
  Integral threshold = 1.00e-12

  ==> Primary Basis <==

  Basis Set: AUG-CC-PVTZ
    Blend: AUG-CC-PVTZ
    Number of shells: 192
    Number of basis functions: 552
    Number of Cartesian functions: 630
    Spherical Harmonics?: true
    Max angular momentum: 3

   => Loading Basis Set <=

    Name: (AUG-CC-PVTZ AUX)
    Role: JKFIT
    Keyword: DF_BASIS_SCF
    atoms 1-2, 10-11 entry C          line   162 file /home/kchung25/anaconda3/envs/p415env/share/psi4/basis/aug-cc-pvtz-jkfit.gbs 
    atoms 3, 12      entry O          line   286 file /home/kchung25/anaconda3/envs/p415env/share/psi4/basis/aug-cc-pvtz-jkfit.gbs 
    atoms 4-9, 13-18 entry H          line    70 file /home/kchung25/anaconda3/envs/p415env/share/psi4/basis/aug-cc-pvtz-jkfit.gbs 

  ==> Integral Setup <==

  ==> DiskDFJK: Density-Fitted J/K Matrices <==

    J tasked:                  Yes
    K tasked:                  Yes
    wK tasked:                  No
    OpenMP threads:              1
    Integrals threads:           1
    Memory [MiB]:             7152
    Algorithm:                Core
    Integral Cache:           LOAD
    Schwarz Cutoff:          1E-12
    Fitting Condition:       1E-10

   => Auxiliary Basis Set <=

  Basis Set: (AUG-CC-PVTZ AUX)
    Blend: AUG-CC-PVTZ-JKFIT
    Number of shells: 348
    Number of basis functions: 1176
    Number of Cartesian functions: 1446
    Spherical Harmonics?: true
    Max angular momentum: 4

  Minimum eigenvalue in the overlap matrix is 1.0073732622E-05.
  Reciprocal condition number of the overlap matrix is 5.5881144356E-07.
    Using symmetric orthogonalization.

  ==> Pre-Iterations <==

  SCF Guess: Superposition of Atomic Densities via on-the-fly atomic UHF (no occupation information).

   -------------------------
    Irrep   Nso     Nmo    
   -------------------------
     A        552     552 
   -------------------------
    Total     552     552
   -------------------------

  ==> Iterations <==

                           Total Energy        Delta E     RMS |[F,P]|

   @DF-RHF iter SAD:  -153.43496800005443   -1.53435e+02   0.00000e+00 
   @DF-RHF iter   1:  -153.99884414824683   -5.63876e-01   9.60098e-04 DIIS/ADIIS
   @DF-RHF iter   2:  -154.11076593822222   -1.11922e-01   5.35404e-04 DIIS/ADIIS
   @DF-RHF iter   3:  -154.14375697637340   -3.29910e-02   8.48526e-05 DIIS
   @DF-RHF iter   4:  -154.14535851425364   -1.60154e-03   3.26534e-05 DIIS
   @DF-RHF iter   5:  -154.14554621229007   -1.87698e-04   5.76965e-06 DIIS
   @DF-RHF iter   6:  -154.14555583688701   -9.62460e-06   1.28054e-06 DIIS
   @DF-RHF iter   7:  -154.14555639427417   -5.57387e-07   3.92826e-07 DIIS
   @DF-RHF iter   8:  -154.14555643855439   -4.42802e-08   1.05867e-07 DIIS
   @DF-RHF iter   9:  -154.14555644281944   -4.26505e-09   2.55915e-08 DIIS
   @DF-RHF iter  10:  -154.14555644309047   -2.71029e-10   4.87434e-09 DIIS
  Energy and wave function converged.


  ==> Post-Iterations <==

    Orbital Energies [Eh]
    ---------------------

    Doubly Occupied:                                                      

       1A    -20.554709     2A    -11.274124     3A    -11.211288  
       4A     -1.357576     5A     -1.014827     6A     -0.833452  
       7A     -0.700309     8A     -0.645630     9A     -0.571909  
      10A     -0.533299    11A     -0.524806    12A     -0.489650  
      13A     -0.440926  

    Virtual:                                                              

      14A      0.022573    15A      0.032238    16A      0.035664  
      17A      0.039524    18A      0.049276    19A      0.050870  
      20A      0.053223    21A      0.063162    22A      0.068547  
      23A      0.074738    24A      0.078738    25A      0.084295  
      26A      0.097755    27A      0.105848    28A      0.110754  
      29A      0.119480    30A      0.124041    31A      0.126223  
      32A      0.128847    33A      0.136188    34A      0.138720  
      35A      0.148853    36A      0.151056    37A      0.156133  
      38A      0.162461    39A      0.175079    40A      0.182483  
      41A      0.186482    42A      0.200906    43A      0.203936  
      44A      0.214437    45A      0.218411    46A      0.232485  
      47A      0.240512    48A      0.244683    49A      0.253726  
      50A      0.263157    51A      0.264280    52A      0.273019  
      53A      0.276575    54A      0.287652    55A      0.291538  
      56A      0.295358    57A      0.299957    58A      0.302999  
      59A      0.311040    60A      0.316892    61A      0.326096  
      62A      0.336148    63A      0.337808    64A      0.339783  
      65A      0.341468    66A      0.350980    67A      0.360002  
      68A      0.366221    69A      0.372474    70A      0.377861  
      71A      0.385416    72A      0.389488    73A      0.391359  
      74A      0.401263    75A      0.407148    76A      0.409367  
      77A      0.415519    78A      0.421049    79A      0.421949  
      80A      0.429373    81A      0.439626    82A      0.444347  
      83A      0.447101    84A      0.452797    85A      0.458689  
      86A      0.466300    87A      0.472580    88A      0.475706  
      89A      0.480556    90A      0.485496    91A      0.491390  
      92A      0.495554    93A      0.502394    94A      0.506441  
      95A      0.511413    96A      0.517596    97A      0.524266  
      98A      0.531738    99A      0.533993   100A      0.541292  
     101A      0.547958   102A      0.550540   103A      0.557779  
     104A      0.561544   105A      0.569309   106A      0.584003  
     107A      0.593674   108A      0.594400   109A      0.600921  
     110A      0.610481   111A      0.615948   112A      0.622224  
     113A      0.630041   114A      0.638289   115A      0.651170  
     116A      0.652271   117A      0.665457   118A      0.676814  
     119A      0.677233   120A      0.688705   121A      0.696666  
     122A      0.710997   123A      0.714253   124A      0.729229  
     125A      0.743712   126A      0.755283   127A      0.769111  
     128A      0.785865   129A      0.788117   130A      0.805989  
     131A      0.822037   132A      0.825544   133A      0.833358  
     134A      0.847628   135A      0.855983   136A      0.862203  
     137A      0.874410   138A      0.884553   139A      0.887700  
     140A      0.904267   141A      0.913752   142A      0.916298  
     143A      0.933423   144A      0.935502   145A      0.946052  
     146A      0.950133   147A      0.955222   148A      0.964584  
     149A      0.971119   150A      0.979286   151A      0.989358  
     152A      0.993424   153A      0.999751   154A      1.006608  
     155A      1.014361   156A      1.020172   157A      1.030589  
     158A      1.033679   159A      1.044830   160A      1.052164  
     161A      1.057249   162A      1.064822   163A      1.065832  
     164A      1.073968   165A      1.083667   166A      1.093289  
     167A      1.099121   168A      1.105522   169A      1.109066  
     170A      1.114990   171A      1.122269   172A      1.124881  
     173A      1.131435   174A      1.138188   175A      1.146547  
     176A      1.149861   177A      1.160461   178A      1.163565  
     179A      1.168919   180A      1.182482   181A      1.190628  
     182A      1.193689   183A      1.201891   184A      1.209591  
     185A      1.217469   186A      1.225559   187A      1.233169  
     188A      1.236970   189A      1.243727   190A      1.257534  
     191A      1.263086   192A      1.268347   193A      1.276711  
     194A      1.286081   195A      1.287872   196A      1.299016  
     197A      1.303425   198A      1.311671   199A      1.316750  
     200A      1.329697   201A      1.334585   202A      1.348902  
     203A      1.359327   204A      1.360724   205A      1.371773  
     206A      1.384236   207A      1.391338   208A      1.405754  
     209A      1.411086   210A      1.422925   211A      1.430816  
     212A      1.443216   213A      1.444187   214A      1.458623  
     215A      1.469642   216A      1.471739   217A      1.485677  
     218A      1.492972   219A      1.496623   220A      1.503052  
     221A      1.521998   222A      1.535929   223A      1.546480  
     224A      1.553183   225A      1.573004   226A      1.581082  
     227A      1.590765   228A      1.605253   229A      1.613119  
     230A      1.622764   231A      1.635644   232A      1.650704  
     233A      1.670164   234A      1.671992   235A      1.678268  
     236A      1.688861   237A      1.695496   238A      1.708029  
     239A      1.716169   240A      1.725673   241A      1.742119  
     242A      1.747089   243A      1.756862   244A      1.773817  
     245A      1.782447   246A      1.794803   247A      1.805449  
     248A      1.814010   249A      1.822964   250A      1.827065  
     251A      1.844483   252A      1.860588   253A      1.869689  
     254A      1.873667   255A      1.884661   256A      1.901161  
     257A      1.914857   258A      1.926845   259A      1.937959  
     260A      1.953978   261A      1.974264   262A      1.979373  
     263A      1.985334   264A      1.996543   265A      2.002172  
     266A      2.005477   267A      2.025040   268A      2.033286  
     269A      2.044347   270A      2.063497   271A      2.072833  
     272A      2.089879   273A      2.100577   274A      2.110253  
     275A      2.122945   276A      2.129937   277A      2.136796  
     278A      2.150225   279A      2.163921   280A      2.183309  
     281A      2.199852   282A      2.210243   283A      2.224287  
     284A      2.234974   285A      2.253193   286A      2.257949  
     287A      2.268632   288A      2.281825   289A      2.291472  
     290A      2.309978   291A      2.329500   292A      2.341590  
     293A      2.354933   294A      2.369435   295A      2.391399  
     296A      2.396100   297A      2.416335   298A      2.431213  
     299A      2.436897   300A      2.446218   301A      2.463543  
     302A      2.492455   303A      2.527952   304A      2.540540  
     305A      2.586798   306A      2.612771   307A      2.629641  
     308A      2.661278   309A      2.708432   310A      2.713676  
     311A      2.730183   312A      2.741221   313A      2.745169  
     314A      2.756996   315A      2.771184   316A      2.794855  
     317A      2.801906   318A      2.827820   319A      2.844075  
     320A      2.866435   321A      2.882437   322A      2.901505  
     323A      2.927542   324A      2.962411   325A      2.991433  
     326A      3.008023   327A      3.027239   328A      3.074133  
     329A      3.079570   330A      3.109385   331A      3.143678  
     332A      3.163060   333A      3.176291   334A      3.187309  
     335A      3.239286   336A      3.260179   337A      3.310040  
     338A      3.375394   339A      3.430823   340A      3.459687  
     341A      3.463084   342A      3.487046   343A      3.489328  
     344A      3.528034   345A      3.539180   346A      3.597890  
     347A      3.628474   348A      3.639697   349A      3.663547  
     350A      3.670300   351A      3.677220   352A      3.687020  
     353A      3.695282   354A      3.723611   355A      3.766609  
     356A      3.791534   357A      3.803947   358A      3.817073  
     359A      3.846911   360A      3.861731   361A      3.894710  
     362A      3.914159   363A      3.959278   364A      3.976682  
     365A      3.986626   366A      3.991911   367A      4.020503  
     368A      4.048508   369A      4.056254   370A      4.075442  
     371A      4.100456   372A      4.105997   373A      4.113522  
     374A      4.126694   375A      4.140246   376A      4.158699  
     377A      4.173750   378A      4.178731   379A      4.191744  
     380A      4.215358   381A      4.230057   382A      4.242183  
     383A      4.255584   384A      4.262884   385A      4.272478  
     386A      4.304772   387A      4.329304   388A      4.335245  
     389A      4.349824   390A      4.382625   391A      4.392848  
     392A      4.418273   393A      4.424915   394A      4.453145  
     395A      4.467586   396A      4.481578   397A      4.495284  
     398A      4.528406   399A      4.530772   400A      4.554264  
     401A      4.570851   402A      4.595686   403A      4.608537  
     404A      4.627754   405A      4.633001   406A      4.644294  
     407A      4.663251   408A      4.677139   409A      4.690933  
     410A      4.707529   411A      4.715336   412A      4.742823  
     413A      4.778515   414A      4.796979   415A      4.807940  
     416A      4.825201   417A      4.833368   418A      4.843219  
     419A      4.854748   420A      4.875700   421A      4.889672  
     422A      4.904641   423A      4.915349   424A      4.927090  
     425A      4.946176   426A      4.958866   427A      4.971756  
     428A      4.999277   429A      5.017776   430A      5.026689  
     431A      5.047339   432A      5.077914   433A      5.084907  
     434A      5.116161   435A      5.132712   436A      5.139461  
     437A      5.162429   438A      5.179846   439A      5.187150  
     440A      5.210532   441A      5.228948   442A      5.238174  
     443A      5.257163   444A      5.283247   445A      5.305900  
     446A      5.327278   447A      5.346498   448A      5.348348  
     449A      5.367114   450A      5.385198   451A      5.423378  
     452A      5.428403   453A      5.438262   454A      5.456198  
     455A      5.464419   456A      5.500707   457A      5.514043  
     458A      5.528670   459A      5.545206   460A      5.559555  
     461A      5.571281   462A      5.582731   463A      5.617581  
     464A      5.627927   465A      5.636309   466A      5.664909  
     467A      5.702602   468A      5.715141   469A      5.742724  
     470A      5.753339   471A      5.755525   472A      5.784171  
     473A      5.821314   474A      5.835171   475A      5.856592  
     476A      5.884176   477A      5.963803   478A      5.989839  
     479A      6.007934   480A      6.037426   481A      6.048632  
     482A      6.078670   483A      6.122493   484A      6.126144  
     485A      6.162347   486A      6.184566   487A      6.203361  
     488A      6.228952   489A      6.267185   490A      6.283065  
     491A      6.285358   492A      6.400516   493A      6.447890  
     494A      6.466590   495A      6.573133   496A      6.731755  
     497A      6.754646   498A      6.795901   499A      6.810432  
     500A      6.841744   501A      6.874192   502A      6.895288  
     503A      6.999262   504A      7.036118   505A      7.047081  
     506A      7.117521   507A      7.136353   508A      7.201387  
     509A      7.308504   510A      7.339049   511A      7.391331  
     512A      7.432548   513A      7.559132   514A      7.581019  
     515A      7.637869   516A      7.748036   517A      7.828044  
     518A      7.858101   519A      7.868063   520A      7.897687  
     521A      7.940202   522A      7.955487   523A      7.997116  
     524A      8.029059   525A      8.151661   526A      8.211489  
     527A      8.270281   528A      8.306775   529A      8.337653  
     530A      8.351385   531A      8.499850   532A      8.650918  
     533A      8.706255   534A      9.020304   535A      9.129417  
     536A      9.977529   537A     10.164659   538A     10.406339  
     539A     10.447122   540A     10.490127   541A     10.839421  
     542A     11.133331   543A     12.032674   544A     12.407150  
     545A     13.336407   546A     14.373853   547A     16.427497  
     548A     18.036530   549A     18.424709   550A     53.238802  
     551A     54.184552   552A     67.240458  

    Final Occupation by Irrep:
              A 
    DOCC [    13 ]
    NA   [    13 ]
    NB   [    13 ]

  @DF-RHF Final Energy:  -154.14555644309047

   => Energetics <=

    Nuclear Repulsion Energy =             82.0996758909111577
    One-Electron Energy =                -372.1854520964409403
    Two-Electron Energy =                 135.9402197624393125
    Total Energy =                       -154.1455564430904701

Computation Completed


Properties will be evaluated at   0.000000,   0.000000,   0.000000 [a0]

Properties computed using the SCF density matrix


 Multipole Moments:

 ------------------------------------------------------------------------------------
     Multipole            Electronic (a.u.)      Nuclear  (a.u.)        Total (a.u.)
 ------------------------------------------------------------------------------------

 L = 1.  Multiply by 2.5417464519 to convert [e a0] to [Debye]
 Dipole X            :         96.5118677          -96.6144875           -0.1026198
 Dipole Y            :         -3.7947584            3.9387958            0.1440375
 Dipole Z            :         -3.6689370            4.3113289            0.6423919
 Magnitude           :                                                    0.6662920

 ------------------------------------------------------------------------------------

*** tstop() called on moses-razer at Sat Mar  1 12:03:08 2025
Module time:
	user time   =      98.90 seconds =       1.65 minutes
	system time =       1.39 seconds =       0.02 minutes
	total time  =        101 seconds =       1.68 minutes
Total time:
	user time   =     361.69 seconds =       6.03 minutes
	system time =       7.10 seconds =       0.12 minutes
	total time  =        369 seconds =       6.15 minutes
  Constructing Basis Sets for SAPT...

   => Loading Basis Set <=

    Name: (AUG-CC-PVTZ AUX)
    Role: RIFIT
    Keyword: DF_BASIS_SAPT
    atoms 1-2, 10-11 entry C          line   148 file /home/kchung25/anaconda3/envs/p415env/share/psi4/basis/aug-cc-pvtz-ri.gbs 
    atoms 3, 12      entry O          line   264 file /home/kchung25/anaconda3/envs/p415env/share/psi4/basis/aug-cc-pvtz-ri.gbs 
    atoms 4-9, 13-18 entry H          line    30 file /home/kchung25/anaconda3/envs/p415env/share/psi4/basis/aug-cc-pvtz-ri.gbs 

   => Loading Basis Set <=

    Name: (AUG-CC-PVTZ AUX)
    Role: JKFIT
    Keyword: DF_BASIS_ELST
    atoms 1-2, 10-11 entry C          line   162 file /home/kchung25/anaconda3/envs/p415env/share/psi4/basis/aug-cc-pvtz-jkfit.gbs 
    atoms 3, 12      entry O          line   286 file /home/kchung25/anaconda3/envs/p415env/share/psi4/basis/aug-cc-pvtz-jkfit.gbs 
    atoms 4-9, 13-18 entry H          line    70 file /home/kchung25/anaconda3/envs/p415env/share/psi4/basis/aug-cc-pvtz-jkfit.gbs 


  //>>>>>>>>>>>>>>>>>>>>>>>>>>>>>>>>>>>//
  //               SAPT2+              //
  //<<<<<<<<<<<<<<<<<<<<<<<<<<<<<<<<<<<//


*** tstart() called on moses-razer
*** at Sat Mar  1 12:03:08 2025

        SAPT2+  
    Ed Hohenstein
     6 June 2009

      Orbital Information
  --------------------------
    NSO        =       552
    NMO        =       552
    NRI        =      1188
    NOCC A     =        13
    NOCC B     =        13
    FOCC A     =         0
    FOCC B     =         0
    NVIR A     =       539
    NVIR B     =       539

    Estimated memory usage: 3939.5 MB

    Natural Orbital Cutoff:   1.000E-06
    Disp(T3) Truncation:            Yes
    CCD (vv|vv) Truncation:         Yes
    MBPT T2 Truncation:             Yes

    Monomer A: 306 virtual orbitals dropped
    Monomer B: 304 virtual orbitals dropped

    Elst10,r            =    -0.014219303191 [Eh]
    Exch10 (S^2)        =     0.015204890475 [Eh]
    Exch10              =     0.015323629455 [Eh]
    Ind20,r (A<-B)      =    -0.002472510592 [Eh]
    Ind20,r (B<-A)      =    -0.004307005081 [Eh]
    Ind20,r             =    -0.006779515673 [Eh]
    Exch-Ind20,r (A<-B) =     0.001850521078 [Eh]
    Exch-Ind20,r (B<-A) =     0.002365657100 [Eh]
    Exch-Ind20,r        =     0.004216178178 [Eh]
    Disp20              =    -0.008564484709 [Eh]
    Disp20 (NO)         =    -0.007570369127 [Eh]
    Exch-Disp20         =     0.001283950952 [Eh]
    Elst12,r            =    -0.000884352765 [Eh]
    Exch11              =     0.000131624874 [Eh]
    Exch12              =     0.002834283475 [Eh]
    Ind22               =    -0.001451355741 [Eh]
    Disp21              =     0.000473550204 [Eh]
    Disp22 (SDQ)        =    -0.000107268932 [Eh]

    (i =   1 of  13)        444 seconds
    (i =   2 of  13)        818 seconds
    (i =   3 of  13)       1227 seconds
    (i =   4 of  13)       1641 seconds
    (i =   5 of  13)       2101 seconds
    (i =   6 of  13)       2531 seconds
    (i =   7 of  13)       2800 seconds
    (i =   8 of  13)       3235 seconds
    (i =   9 of  13)       3699 seconds
    (i =  10 of  13)       4163 seconds
    (i =  11 of  13)       4627 seconds
    (i =  12 of  13)       5091 seconds
    (i =  13 of  13)       5500 seconds

    Disp220 (T)         =    -0.000701306277 [Eh]

    (i =   1 of  13)        271 seconds
    (i =   2 of  13)        573 seconds
    (i =   3 of  13)        941 seconds
    (i =   4 of  13)       1204 seconds
    (i =   5 of  13)       1455 seconds
    (i =   6 of  13)       1702 seconds
    (i =   7 of  13)       1967 seconds
    (i =   8 of  13)       2213 seconds
    (i =   9 of  13)       2460 seconds
    (i =  10 of  13)       2707 seconds
    (i =  11 of  13)       2951 seconds
    (i =  12 of  13)       3193 seconds
    (i =  13 of  13)       3438 seconds

    Disp202 (T)         =    -0.000634147086 [Eh]

    Disp22 (T)          =    -0.001335453363 [Eh]

    Est. Disp220 (T)    =    -0.000793399474 [Eh]
    Est. Disp202 (T)    =    -0.000717421163 [Eh]

    Est. Disp22 (T)     =    -0.001510820637 [Eh]

    SAPT Results 
  --------------------------------------------------------------------------------------------------------
    Electrostatics                -15.10365596 [mEh]      -9.47768720 [kcal/mol]     -39.65464325 [kJ/mol]
      Elst10,r                    -14.21930319 [mEh]      -8.92274746 [kcal/mol]     -37.33277538 [kJ/mol]
      Elst12,r                     -0.88435276 [mEh]      -0.55493974 [kcal/mol]      -2.32186786 [kJ/mol]

    Exchange                       18.28953780 [mEh]      11.47685824 [kcal/mol]      48.01917489 [kJ/mol]
      Exch10                       15.32362946 [mEh]       9.61572266 [kcal/mol]      40.23218359 [kJ/mol]
      Exch10(S^2)                  15.20489048 [mEh]       9.54121282 [kcal/mol]      39.92043444 [kJ/mol]
      Exch11(S^2)                   0.13162487 [mEh]       0.08259586 [kcal/mol]       0.34558106 [kJ/mol]
      Exch12(S^2)                   2.83428347 [mEh]       1.77853973 [kcal/mol]       7.44141024 [kJ/mol]

    Induction                      -4.98380806 [mEh]      -3.12738677 [kcal/mol]     -13.08498625 [kJ/mol]
      Ind20,r                      -6.77951567 [mEh]      -4.25421031 [kcal/mol]     -17.79961595 [kJ/mol]
      Ind22                        -1.45135574 [mEh]      -0.91073948 [kcal/mol]      -3.81053397 [kJ/mol]
      Exch-Ind20,r                  4.21617818 [mEh]       2.64569175 [kcal/mol]      11.06957428 [kJ/mol]
      Exch-Ind22                    0.90259757 [mEh]       0.56638853 [kcal/mol]       2.36976961 [kJ/mol]
      delta HF,r (2)               -1.87171239 [mEh]      -1.17451726 [kcal/mol]      -4.91418021 [kJ/mol]

    Dispersion                     -8.42507312 [mEh]      -5.28681320 [kcal/mol]     -22.12002644 [kJ/mol]
      Disp20                       -8.56448471 [mEh]      -5.37429529 [kcal/mol]     -22.48605151 [kJ/mol]
      Disp21                        0.47355020 [mEh]       0.29715724 [kcal/mol]       1.24330589 [kJ/mol]
      Disp22 (SDQ)                 -0.10726893 [mEh]      -0.06731227 [kcal/mol]      -0.28163454 [kJ/mol]
      Disp22 (T)                   -1.33545336 [mEh]      -0.83800964 [kcal/mol]      -3.50623232 [kJ/mol]
      Est. Disp22 (T)              -1.51082064 [mEh]      -0.94805426 [kcal/mol]      -3.96665904 [kJ/mol]
      Exch-Disp20                   1.28395095 [mEh]       0.80569139 [kcal/mol]       3.37101276 [kJ/mol]

  Total HF                         -3.33072362 [mEh]      -2.09006063 [kcal/mol]      -8.74481367 [kJ/mol]
  Total SAPT0                     -10.61125738 [mEh]      -6.65866454 [kcal/mol]     -27.85985242 [kJ/mol]
  Total SAPT2                      -9.07845996 [mEh]      -5.69681963 [kcal/mol]     -23.83549335 [kJ/mol]
  Total SAPT2+                    -10.22299933 [mEh]      -6.41502893 [kcal/mol]     -26.84048104 [kJ/mol]

  Special recipe for scaled SAPT0 (see Manual):
    Electrostatics sSAPT0         -14.21930319 [mEh]      -8.92274746 [kcal/mol]     -37.33277538 [kJ/mol]
    Exchange sSAPT0                15.32362946 [mEh]       9.61572266 [kcal/mol]      40.23218359 [kJ/mol]
    Induction sSAPT0               -4.33550079 [mEh]      -2.72056782 [kcal/mol]     -11.38285576 [kJ/mol]
    Dispersion sSAPT0              -7.25021811 [mEh]      -4.54958055 [kcal/mol]     -19.03544503 [kJ/mol]
  Total sSAPT0                    -10.48139264 [mEh]      -6.57717318 [kcal/mol]     -27.51889258 [kJ/mol]
  --------------------------------------------------------------------------------------------------------

*** tstop() called on moses-razer at Sat Mar  1 15:02:53 2025
Module time:
	user time   =   10621.29 seconds =     177.02 minutes
	system time =     124.60 seconds =       2.08 minutes
	total time  =      10785 seconds =     179.75 minutes
Total time:
	user time   =   10983.18 seconds =     183.05 minutes
	system time =     131.70 seconds =       2.20 minutes
	total time  =      11154 seconds =     185.90 minutes

    Psi4 stopped on: Saturday, 01 March 2025 03:02PM
    Psi4 wall time for execution: 3:05:55.89

*** Psi4 exiting successfully. Buy a developer a beer!
