
    -----------------------------------------------------------------------
          Psi4: An Open-Source Ab Initio Electronic Structure Package
                               Psi4 1.9 release

                         Git: Rev {} zzzzzzz 


    D. G. A. Smith, L. A. Burns, A. C. Simmonett, R. M. Parrish,
    M. C. Schieber, R. Galvelis, P. Kraus, H. Kruse, R. Di Remigio,
    A. Alenaizan, A. M. James, S. Lehtola, J. P. Misiewicz, M. Scheurer,
    R. A. Shaw, J. B. Schriber, Y. Xie, Z. L. Glick, D. A. Sirianni,
    J. S. O'Brien, J. M. Waldrop, A. Kumar, E. G. Hohenstein,
    B. P. Pritchard, B. R. Brooks, H. F. Schaefer III, A. Yu. Sokolov,
    K. Patkowski, A. E. DePrince III, U. Bozkaya, R. A. King,
    F. A. Evangelista, J. M. Turney, T. D. Crawford, C. D. Sherrill,
    J. Chem. Phys. 152(18) 184108 (2020). https://doi.org/10.1063/5.0006002

                            Additional Code Authors
    E. T. Seidl, C. L. Janssen, E. F. Valeev, M. L. Leininger,
    J. F. Gonthier, R. M. Richard, H. R. McAlexander, M. Saitow, X. Wang,
    P. Verma, M. H. Lechner, A. Jiang, S. Behnle, A. G. Heide,
    M. F. Herbst, and D. L. Poole

             Previous Authors, Complete List of Code Contributors,
                       and Citations for Specific Modules
    https://github.com/psi4/psi4/blob/master/codemeta.json
    https://github.com/psi4/psi4/graphs/contributors
    http://psicode.org/psi4manual/master/introduction.html#citing-psifour

    -----------------------------------------------------------------------


    Psi4 started on: Sunday, 02 March 2025 02:07AM

    Process ID: 205021
    Host:       moses-razer
    PSIDATADIR: /home/kchung25/anaconda3/envs/psi4_19/share/psi4
    Memory:     500.0 MiB
    Threads:    1
    
  ==> Input File <==

--------------------------------------------------------------------------
MEMORY 10 GB

molecule dimer {
0 1
C    2.029754   1.123131  -0.290571
C    1.890340  -0.376706  -0.296268
O    1.144521  -0.851246   0.810495
H    1.540555  -0.528261   1.623714
H    2.574105   1.469398  -1.171008
H    2.579304   1.463015   0.592339
H    1.046994   1.600385  -0.283454
H    2.875799  -0.859264  -0.326945
H    1.341500  -0.713398  -1.179928
--
0 1
C   -2.047126   0.925428   0.637739
C   -1.738244   0.151549  -0.621663
O   -1.422060  -1.189958  -0.368607
H   -0.641977  -1.205023   0.205750
H   -2.319559   1.959603   0.413595
H   -1.176827   0.940892   1.300407
H   -2.872421   0.458961   1.179293
H   -0.928504   0.655062  -1.177321
H   -2.607004   0.147853  -1.286962

units ang
no_reorient
no_com
symmetry c1
}

set {
basis        aug-cc-pVTZ
scf_type     df
}

energy("sapt2+")
--------------------------------------------------------------------------

  Memory set to   9.313 GiB by Python driver.

Scratch directory: /scratch/
   => Loading Basis Set <=

    Name: AUG-CC-PVTZ
    Role: ORBITAL
    Keyword: BASIS
    atoms 1-2, 10-11 entry C          line   239 file /home/kchung25/anaconda3/envs/p415env/share/psi4/basis/aug-cc-pvtz.gbs 
    atoms 3, 12      entry O          line   331 file /home/kchung25/anaconda3/envs/p415env/share/psi4/basis/aug-cc-pvtz.gbs 
    atoms 4-9, 13-18 entry H          line    40 file /home/kchung25/anaconda3/envs/p415env/share/psi4/basis/aug-cc-pvtz.gbs 

   => Loading Basis Set <=

    Name: AUG-CC-PVTZ
    Role: ORBITAL
    Keyword: BASIS
    atoms 1-2, 10-11 entry C          line   239 file /home/kchung25/anaconda3/envs/p415env/share/psi4/basis/aug-cc-pvtz.gbs 
    atoms 3, 12      entry O          line   331 file /home/kchung25/anaconda3/envs/p415env/share/psi4/basis/aug-cc-pvtz.gbs 
    atoms 4-9, 13-18 entry H          line    40 file /home/kchung25/anaconda3/envs/p415env/share/psi4/basis/aug-cc-pvtz.gbs 


  //>>>>>>>>>>>>>>>>>>>>>>>>>>>>>>>>>>>//
  //              Dimer HF             //
  //<<<<<<<<<<<<<<<<<<<<<<<<<<<<<<<<<<<//

   => Libint2 <=

    Primary   basis highest AM E, G, H:  5, 4, 3
    Auxiliary basis highest AM E, G, H:  6, 5, 4
    Onebody   basis highest AM E, G, H:  6, 5, 4
    Solid Harmonics ordering:            gaussian

*** tstart() called on moses-razer
*** at Sun Mar  2 02:07:27 2025

   => Loading Basis Set <=

    Name: AUG-CC-PVTZ
    Role: ORBITAL
    Keyword: BASIS
    atoms 1-2, 10-11 entry C          line   239 file /home/kchung25/anaconda3/envs/p415env/share/psi4/basis/aug-cc-pvtz.gbs 
    atoms 3, 12      entry O          line   331 file /home/kchung25/anaconda3/envs/p415env/share/psi4/basis/aug-cc-pvtz.gbs 
    atoms 4-9, 13-18 entry H          line    40 file /home/kchung25/anaconda3/envs/p415env/share/psi4/basis/aug-cc-pvtz.gbs 


         ---------------------------------------------------------
                                   SCF
               by Justin Turney, Rob Parrish, Andy Simmonett
                          and Daniel G. A. Smith
                              RHF Reference
                        1 Threads,   9536 MiB Core
         ---------------------------------------------------------

  ==> Geometry <==

    Molecular point group: c1
    Full point group: C1

    Geometry (in Angstrom), charge = 0, multiplicity = 1:

       Center              X                  Y                   Z               Mass       
    ------------   -----------------  -----------------  -----------------  -----------------
         C            2.029754000000     1.123131000000    -0.290571000000    12.000000000000
         C            1.890340000000    -0.376706000000    -0.296268000000    12.000000000000
         O            1.144521000000    -0.851246000000     0.810495000000    15.994914619570
         H            1.540555000000    -0.528261000000     1.623714000000     1.007825032230
         H            2.574105000000     1.469398000000    -1.171008000000     1.007825032230
         H            2.579304000000     1.463015000000     0.592339000000     1.007825032230
         H            1.046994000000     1.600385000000    -0.283454000000     1.007825032230
         H            2.875799000000    -0.859264000000    -0.326945000000     1.007825032230
         H            1.341500000000    -0.713398000000    -1.179928000000     1.007825032230
         C           -2.047126000000     0.925428000000     0.637739000000    12.000000000000
         C           -1.738244000000     0.151549000000    -0.621663000000    12.000000000000
         O           -1.422060000000    -1.189958000000    -0.368607000000    15.994914619570
         H           -0.641977000000    -1.205023000000     0.205750000000     1.007825032230
         H           -2.319559000000     1.959603000000     0.413595000000     1.007825032230
         H           -1.176827000000     0.940892000000     1.300407000000     1.007825032230
         H           -2.872421000000     0.458961000000     1.179293000000     1.007825032230
         H           -0.928504000000     0.655062000000    -1.177321000000     1.007825032230
         H           -2.607004000000     0.147853000000    -1.286962000000     1.007825032230

  Running in c1 symmetry.

  Rotational constants: A =      0.14847  B =      0.05283  C =      0.04689 [cm^-1]
  Rotational constants: A =   4450.90433  B =   1583.68384  C =   1405.84345 [MHz]
  Nuclear repulsion =  261.374266014496072

  Charge       = 0
  Multiplicity = 1
  Electrons    = 52
  Nalpha       = 26
  Nbeta        = 26

  ==> Algorithm <==

  SCF Algorithm Type is DF.
  DIIS enabled.
  MOM disabled.
  Fractional occupation disabled.
  Guess Type is SAD.
  Energy threshold   = 1.00e-08
  Density threshold  = 1.00e-08
  Integral threshold = 1.00e-12

  ==> Primary Basis <==

  Basis Set: AUG-CC-PVTZ
    Blend: AUG-CC-PVTZ
    Number of shells: 192
    Number of basis functions: 552
    Number of Cartesian functions: 630
    Spherical Harmonics?: true
    Max angular momentum: 3

   => Loading Basis Set <=

    Name: (AUG-CC-PVTZ AUX)
    Role: JKFIT
    Keyword: DF_BASIS_SCF
    atoms 1-2, 10-11 entry C          line   162 file /home/kchung25/anaconda3/envs/p415env/share/psi4/basis/aug-cc-pvtz-jkfit.gbs 
    atoms 3, 12      entry O          line   286 file /home/kchung25/anaconda3/envs/p415env/share/psi4/basis/aug-cc-pvtz-jkfit.gbs 
    atoms 4-9, 13-18 entry H          line    70 file /home/kchung25/anaconda3/envs/p415env/share/psi4/basis/aug-cc-pvtz-jkfit.gbs 

  ==> Integral Setup <==

  ==> DiskDFJK: Density-Fitted J/K Matrices <==

    J tasked:                  Yes
    K tasked:                  Yes
    wK tasked:                  No
    OpenMP threads:              1
    Integrals threads:           1
    Memory [MiB]:             7152
    Algorithm:                Core
    Integral Cache:           SAVE
    Schwarz Cutoff:          1E-12
    Fitting Condition:       1E-10

   => Auxiliary Basis Set <=

  Basis Set: (AUG-CC-PVTZ AUX)
    Blend: AUG-CC-PVTZ-JKFIT
    Number of shells: 348
    Number of basis functions: 1176
    Number of Cartesian functions: 1446
    Spherical Harmonics?: true
    Max angular momentum: 4

  Minimum eigenvalue in the overlap matrix is 7.4733443317E-06.
  Reciprocal condition number of the overlap matrix is 3.8301918725E-07.
    Using symmetric orthogonalization.

  ==> Pre-Iterations <==

  SCF Guess: Superposition of Atomic Densities via on-the-fly atomic UHF (no occupation information).

   -------------------------
    Irrep   Nso     Nmo    
   -------------------------
     A        552     552 
   -------------------------
    Total     552     552
   -------------------------

  ==> Iterations <==

                           Total Energy        Delta E     RMS |[F,P]|

   @DF-RHF iter SAD:  -307.13364446538628   -3.07134e+02   0.00000e+00 
   @DF-RHF iter   1:  -308.01990446382354   -8.86260e-01   1.29131e-03 ADIIS/DIIS
   @DF-RHF iter   2:  -308.23946022165660   -2.19556e-01   6.53095e-04 ADIIS/DIIS
   @DF-RHF iter   3:  -308.28929595797615   -4.98357e-02   1.16210e-04 ADIIS/DIIS
   @DF-RHF iter   4:  -308.29238083294280   -3.08487e-03   4.16196e-05 DIIS
   @DF-RHF iter   5:  -308.29268993688368   -3.09104e-04   8.81524e-06 DIIS
   @DF-RHF iter   6:  -308.29271003686688   -2.01000e-05   2.07627e-06 DIIS
   @DF-RHF iter   7:  -308.29271150313275   -1.46627e-06   5.69770e-07 DIIS
   @DF-RHF iter   8:  -308.29271160756855   -1.04436e-07   1.76617e-07 DIIS
   @DF-RHF iter   9:  -308.29271161866853   -1.11000e-08   4.65005e-08 DIIS
   @DF-RHF iter  10:  -308.29271161948100   -8.12463e-10   1.03067e-08 DIIS
   @DF-RHF iter  11:  -308.29271161951539   -3.43903e-11   3.62819e-09 DIIS
  Energy and wave function converged.


  ==> Post-Iterations <==

    Orbital Energies [Eh]
    ---------------------

    Doubly Occupied:                                                      

       1A    -20.577133     2A    -20.527871     3A    -11.286410  
       4A    -11.259221     5A    -11.228949     6A    -11.205890  
       7A     -1.384106     8A     -1.339262     9A     -1.028144  
      10A     -0.999534    11A     -0.863748    12A     -0.832431  
      13A     -0.714953    14A     -0.667781    15A     -0.638832  
      16A     -0.629981    17A     -0.609602    18A     -0.595090  
      19A     -0.559876    20A     -0.539765    21A     -0.527754  
      22A     -0.512955    23A     -0.498511    24A     -0.467531  
      25A     -0.455385    26A     -0.421516  

    Virtual:                                                              

      27A      0.024599    28A      0.034092    29A      0.035363  
      30A      0.041450    31A      0.051308    32A      0.053189  
      33A      0.055401    34A      0.063160    35A      0.068398  
      36A      0.077609    37A      0.080368    38A      0.087451  
      39A      0.112627    40A      0.114894    41A      0.120273  
      42A      0.123396    43A      0.126996    44A      0.134715  
      45A      0.135663    46A      0.146161    47A      0.149943  
      48A      0.151077    49A      0.155330    50A      0.164092  
      51A      0.168173    52A      0.173875    53A      0.180898  
      54A      0.191338    55A      0.195230    56A      0.207611  
      57A      0.215131    58A      0.225114    59A      0.229857  
      60A      0.239677    61A      0.246825    62A      0.266311  
      63A      0.273382    64A      0.276508    65A      0.280360  
      66A      0.287450    67A      0.297659    68A      0.298971  
      69A      0.306432    70A      0.308499    71A      0.322178  
      72A      0.324421    73A      0.327572    74A      0.335060  
      75A      0.342295    76A      0.343901    77A      0.349563  
      78A      0.350663    79A      0.356262    80A      0.360422  
      81A      0.366491    82A      0.377490    83A      0.379632  
      84A      0.380814    85A      0.395087    86A      0.397585  
      87A      0.399068    88A      0.403544    89A      0.419538  
      90A      0.424729    91A      0.426842    92A      0.430409  
      93A      0.438429    94A      0.439183    95A      0.444113  
      96A      0.450918    97A      0.453480    98A      0.462022  
      99A      0.466029   100A      0.469875   101A      0.474407  
     102A      0.481611   103A      0.490145   104A      0.493223  
     105A      0.503963   106A      0.506153   107A      0.509814  
     108A      0.513286   109A      0.515564   110A      0.525885  
     111A      0.531209   112A      0.535726   113A      0.543714  
     114A      0.548350   115A      0.556045   116A      0.558136  
     117A      0.570792   118A      0.578447   119A      0.582283  
     120A      0.584085   121A      0.597709   122A      0.604823  
     123A      0.610846   124A      0.617944   125A      0.632538  
     126A      0.640098   127A      0.647608   128A      0.653831  
     129A      0.660098   130A      0.666334   131A      0.673416  
     132A      0.693337   133A      0.700822   134A      0.710657  
     135A      0.721137   136A      0.740251   137A      0.749361  
     138A      0.756392   139A      0.779289   140A      0.785329  
     141A      0.799441   142A      0.805515   143A      0.822653  
     144A      0.830220   145A      0.832759   146A      0.838740  
     147A      0.849102   148A      0.855893   149A      0.861832  
     150A      0.867251   151A      0.870999   152A      0.881089  
     153A      0.885263   154A      0.892893   155A      0.896162  
     156A      0.904563   157A      0.919239   158A      0.920664  
     159A      0.928565   160A      0.934996   161A      0.942600  
     162A      0.949974   163A      0.954329   164A      0.961866  
     165A      0.966904   166A      0.973653   167A      0.982931  
     168A      0.987413   169A      1.002353   170A      1.013206  
     171A      1.013807   172A      1.017377   173A      1.026032  
     174A      1.037844   175A      1.042598   176A      1.050516  
     177A      1.057908   178A      1.063055   179A      1.076466  
     180A      1.085413   181A      1.091268   182A      1.097590  
     183A      1.103422   184A      1.109985   185A      1.110430  
     186A      1.124673   187A      1.132937   188A      1.136153  
     189A      1.143444   190A      1.148004   191A      1.150407  
     192A      1.157031   193A      1.172829   194A      1.176063  
     195A      1.187540   196A      1.196566   197A      1.202745  
     198A      1.213920   199A      1.219468   200A      1.230766  
     201A      1.240832   202A      1.250797   203A      1.256953  
     204A      1.271361   205A      1.276831   206A      1.284843  
     207A      1.288815   208A      1.298840   209A      1.304983  
     210A      1.312636   211A      1.320576   212A      1.328841  
     213A      1.338488   214A      1.349043   215A      1.354252  
     216A      1.361343   217A      1.371108   218A      1.378247  
     219A      1.387122   220A      1.391221   221A      1.397758  
     222A      1.411449   223A      1.419549   224A      1.428454  
     225A      1.434293   226A      1.444918   227A      1.460597  
     228A      1.476945   229A      1.489116   230A      1.493146  
     231A      1.512949   232A      1.515217   233A      1.534198  
     234A      1.549304   235A      1.550612   236A      1.554717  
     237A      1.571437   238A      1.596071   239A      1.605189  
     240A      1.621657   241A      1.624336   242A      1.636446  
     243A      1.647349   244A      1.656506   245A      1.664164  
     246A      1.671091   247A      1.681131   248A      1.695423  
     249A      1.698912   250A      1.703687   251A      1.705089  
     252A      1.723517   253A      1.727956   254A      1.739752  
     255A      1.742152   256A      1.752462   257A      1.763215  
     258A      1.766736   259A      1.779251   260A      1.790176  
     261A      1.794913   262A      1.799447   263A      1.801022  
     264A      1.831536   265A      1.839475   266A      1.850512  
     267A      1.855483   268A      1.862601   269A      1.873674  
     270A      1.884691   271A      1.889793   272A      1.893473  
     273A      1.920011   274A      1.924997   275A      1.935558  
     276A      1.943196   277A      1.950141   278A      1.960529  
     279A      1.967033   280A      1.985403   281A      2.006828  
     282A      2.013896   283A      2.031272   284A      2.037656  
     285A      2.054866   286A      2.066031   287A      2.085012  
     288A      2.100100   289A      2.109117   290A      2.114658  
     291A      2.122547   292A      2.144705   293A      2.155999  
     294A      2.171465   295A      2.195475   296A      2.204087  
     297A      2.213174   298A      2.226714   299A      2.236084  
     300A      2.241540   301A      2.261538   302A      2.267156  
     303A      2.285521   304A      2.296713   305A      2.301265  
     306A      2.319555   307A      2.338628   308A      2.357229  
     309A      2.366210   310A      2.382742   311A      2.410832  
     312A      2.423303   313A      2.445577   314A      2.475541  
     315A      2.478900   316A      2.513289   317A      2.516219  
     318A      2.533107   319A      2.587804   320A      2.628062  
     321A      2.655096   322A      2.661011   323A      2.698137  
     324A      2.727510   325A      2.733896   326A      2.759824  
     327A      2.801601   328A      2.804752   329A      2.832664  
     330A      2.850386   331A      2.881838   332A      2.893508  
     333A      2.909208   334A      2.949691   335A      2.967231  
     336A      2.978323   337A      3.033249   338A      3.050989  
     339A      3.060684   340A      3.082733   341A      3.086117  
     342A      3.120461   343A      3.150302   344A      3.172744  
     345A      3.209329   346A      3.241073   347A      3.259422  
     348A      3.263988   349A      3.310606   350A      3.338067  
     351A      3.377753   352A      3.414748   353A      3.438804  
     354A      3.476399   355A      3.485793   356A      3.514217  
     357A      3.516931   358A      3.522762   359A      3.544157  
     360A      3.587566   361A      3.604767   362A      3.620531  
     363A      3.659251   364A      3.672698   365A      3.675690  
     366A      3.681591   367A      3.690842   368A      3.710497  
     369A      3.722928   370A      3.737163   371A      3.772127  
     372A      3.774305   373A      3.794179   374A      3.798050  
     375A      3.808948   376A      3.814184   377A      3.823572  
     378A      3.829450   379A      3.841232   380A      3.864748  
     381A      3.881293   382A      3.883703   383A      3.936891  
     384A      3.951316   385A      3.958565   386A      3.970702  
     387A      3.983119   388A      3.984686   389A      3.992463  
     390A      4.002741   391A      4.024313   392A      4.041542  
     393A      4.056411   394A      4.070211   395A      4.082566  
     396A      4.089989   397A      4.103806   398A      4.117598  
     399A      4.126646   400A      4.137715   401A      4.157415  
     402A      4.165349   403A      4.188084   404A      4.195135  
     405A      4.213133   406A      4.223808   407A      4.228283  
     408A      4.244139   409A      4.256976   410A      4.294337  
     411A      4.304422   412A      4.316531   413A      4.324819  
     414A      4.347237   415A      4.366016   416A      4.385435  
     417A      4.415744   418A      4.425062   419A      4.428018  
     420A      4.464356   421A      4.477561   422A      4.495558  
     423A      4.527029   424A      4.556123   425A      4.558049  
     426A      4.575944   427A      4.596496   428A      4.609579  
     429A      4.622843   430A      4.628927   431A      4.663137  
     432A      4.678180   433A      4.691834   434A      4.703574  
     435A      4.721783   436A      4.745255   437A      4.758798  
     438A      4.783687   439A      4.799875   440A      4.814331  
     441A      4.841590   442A      4.865530   443A      4.869961  
     444A      4.871232   445A      4.885600   446A      4.902468  
     447A      4.922932   448A      4.934269   449A      4.942195  
     450A      4.959183   451A      4.983207   452A      5.001799  
     453A      5.007639   454A      5.031300   455A      5.037160  
     456A      5.043298   457A      5.059265   458A      5.076029  
     459A      5.087212   460A      5.118329   461A      5.131010  
     462A      5.152617   463A      5.163162   464A      5.185698  
     465A      5.215019   466A      5.220723   467A      5.223987  
     468A      5.258195   469A      5.260846   470A      5.287097  
     471A      5.315382   472A      5.338876   473A      5.373791  
     474A      5.381235   475A      5.409061   476A      5.428308  
     477A      5.429884   478A      5.456598   479A      5.460042  
     480A      5.508359   481A      5.531475   482A      5.551806  
     483A      5.555679   484A      5.580730   485A      5.599783  
     486A      5.624233   487A      5.640209   488A      5.653283  
     489A      5.666098   490A      5.688305   491A      5.708891  
     492A      5.745971   493A      5.767606   494A      5.788080  
     495A      5.812172   496A      5.831240   497A      5.878285  
     498A      5.924113   499A      6.015414   500A      6.026834  
     501A      6.083064   502A      6.105260   503A      6.133093  
     504A      6.156768   505A      6.204881   506A      6.217281  
     507A      6.247238   508A      6.267262   509A      6.286939  
     510A      6.313979   511A      6.347243   512A      6.348560  
     513A      6.408055   514A      6.448741   515A      6.725248  
     516A      6.759996   517A      6.793722   518A      6.804912  
     519A      6.821162   520A      6.836316   521A      6.875213  
     522A      6.916339   523A      7.014329   524A      7.053234  
     525A      7.098525   526A      7.132780   527A      7.168283  
     528A      7.225600   529A      7.364747   530A      7.380663  
     531A      7.455894   532A      7.469421   533A      7.503710  
     534A      7.570407   535A      7.606217   536A      7.676561  
     537A      7.710337   538A      7.743165   539A      7.880870  
     540A      7.903837   541A      7.992153   542A      8.096295  
     543A      8.270171   544A      8.340421   545A      8.672277  
     546A      8.736892   547A     16.459609   548A     17.058677  
     549A     17.777709   550A     17.887498   551A     18.622066  
     552A     18.807491  

    Final Occupation by Irrep:
              A 
    DOCC [    26 ]
    NA   [    26 ]
    NB   [    26 ]

  @DF-RHF Final Energy:  -308.29271161951539

   => Energetics <=

    Nuclear Repulsion Energy =            261.3742660144960723
    One-Electron Energy =                -938.5894874774116943
    Two-Electron Energy =                 368.9225098434002916
    Total Energy =                       -308.2927116195153872

Computation Completed


Properties will be evaluated at   0.000000,   0.000000,   0.000000 [a0]

Properties computed using the SCF density matrix


 Multipole Moments:

 ------------------------------------------------------------------------------------
     Multipole            Electronic (a.u.)      Nuclear  (a.u.)        Total (a.u.)
 ------------------------------------------------------------------------------------

 L = 1.  Multiply by 2.5417464519 to convert [e a0] to [Debye]
 Dipole X            :          1.1241773           -0.0000057            1.1241716
 Dipole Y            :          0.9616083            0.0000057            0.9616140
 Dipole Z            :          0.3158694            0.0000113            0.3158807
 Magnitude           :                                                    1.5126943

 ------------------------------------------------------------------------------------

*** tstop() called on moses-razer at Sun Mar  2 02:10:25 2025
Module time:
	user time   =     173.19 seconds =       2.89 minutes
	system time =       4.21 seconds =       0.07 minutes
	total time  =        178 seconds =       2.97 minutes
Total time:
	user time   =     173.19 seconds =       2.89 minutes
	system time =       4.21 seconds =       0.07 minutes
	total time  =        178 seconds =       2.97 minutes

  //>>>>>>>>>>>>>>>>>>>>>>>>>>>>>>>>>>>//
  //            Monomer A HF           //
  //<<<<<<<<<<<<<<<<<<<<<<<<<<<<<<<<<<<//

   => Libint2 <=

    Primary   basis highest AM E, G, H:  5, 4, 3
    Auxiliary basis highest AM E, G, H:  6, 5, 4
    Onebody   basis highest AM E, G, H:  6, 5, 4
    Solid Harmonics ordering:            gaussian

*** tstart() called on moses-razer
*** at Sun Mar  2 02:10:25 2025

   => Loading Basis Set <=

    Name: AUG-CC-PVTZ
    Role: ORBITAL
    Keyword: BASIS
    atoms 1-2, 10-11 entry C          line   239 file /home/kchung25/anaconda3/envs/p415env/share/psi4/basis/aug-cc-pvtz.gbs 
    atoms 3, 12      entry O          line   331 file /home/kchung25/anaconda3/envs/p415env/share/psi4/basis/aug-cc-pvtz.gbs 
    atoms 4-9, 13-18 entry H          line    40 file /home/kchung25/anaconda3/envs/p415env/share/psi4/basis/aug-cc-pvtz.gbs 


         ---------------------------------------------------------
                                   SCF
               by Justin Turney, Rob Parrish, Andy Simmonett
                          and Daniel G. A. Smith
                              RHF Reference
                        1 Threads,   9536 MiB Core
         ---------------------------------------------------------

  ==> Geometry <==

    Molecular point group: c1
    Full point group: C1

    Geometry (in Angstrom), charge = 0, multiplicity = 1:

       Center              X                  Y                   Z               Mass       
    ------------   -----------------  -----------------  -----------------  -----------------
         C            2.029754000000     1.123131000000    -0.290571000000    12.000000000000
         C            1.890340000000    -0.376706000000    -0.296268000000    12.000000000000
         O            1.144521000000    -0.851246000000     0.810495000000    15.994914619570
         H            1.540555000000    -0.528261000000     1.623714000000     1.007825032230
         H            2.574105000000     1.469398000000    -1.171008000000     1.007825032230
         H            2.579304000000     1.463015000000     0.592339000000     1.007825032230
         H            1.046994000000     1.600385000000    -0.283454000000     1.007825032230
         H            2.875799000000    -0.859264000000    -0.326945000000     1.007825032230
         H            1.341500000000    -0.713398000000    -1.179928000000     1.007825032230
      Gh(C)          -2.047126000000     0.925428000000     0.637739000000    12.000000000000
      Gh(C)          -1.738244000000     0.151549000000    -0.621663000000    12.000000000000
      Gh(O)          -1.422060000000    -1.189958000000    -0.368607000000    15.994914619570
      Gh(H)          -0.641977000000    -1.205023000000     0.205750000000     1.007825032230
      Gh(H)          -2.319559000000     1.959603000000     0.413595000000     1.007825032230
      Gh(H)          -1.176827000000     0.940892000000     1.300407000000     1.007825032230
      Gh(H)          -2.872421000000     0.458961000000     1.179293000000     1.007825032230
      Gh(H)          -0.928504000000     0.655062000000    -1.177321000000     1.007825032230
      Gh(H)          -2.607004000000     0.147853000000    -1.286962000000     1.007825032230

  Running in c1 symmetry.

  Rotational constants: A =      0.14847  B =      0.05283  C =      0.04689 [cm^-1]
  Rotational constants: A =   4450.90433  B =   1583.68384  C =   1405.84345 [MHz]
  Nuclear repulsion =   82.068236539852535

  Charge       = 0
  Multiplicity = 1
  Electrons    = 26
  Nalpha       = 13
  Nbeta        = 13

  ==> Algorithm <==

  SCF Algorithm Type is DF.
  DIIS enabled.
  MOM disabled.
  Fractional occupation disabled.
  Guess Type is SAD.
  Energy threshold   = 1.00e-08
  Density threshold  = 1.00e-08
  Integral threshold = 1.00e-12

  ==> Primary Basis <==

  Basis Set: AUG-CC-PVTZ
    Blend: AUG-CC-PVTZ
    Number of shells: 192
    Number of basis functions: 552
    Number of Cartesian functions: 630
    Spherical Harmonics?: true
    Max angular momentum: 3

   => Loading Basis Set <=

    Name: (AUG-CC-PVTZ AUX)
    Role: JKFIT
    Keyword: DF_BASIS_SCF
    atoms 1-2, 10-11 entry C          line   162 file /home/kchung25/anaconda3/envs/p415env/share/psi4/basis/aug-cc-pvtz-jkfit.gbs 
    atoms 3, 12      entry O          line   286 file /home/kchung25/anaconda3/envs/p415env/share/psi4/basis/aug-cc-pvtz-jkfit.gbs 
    atoms 4-9, 13-18 entry H          line    70 file /home/kchung25/anaconda3/envs/p415env/share/psi4/basis/aug-cc-pvtz-jkfit.gbs 

  ==> Integral Setup <==

  ==> DiskDFJK: Density-Fitted J/K Matrices <==

    J tasked:                  Yes
    K tasked:                  Yes
    wK tasked:                  No
    OpenMP threads:              1
    Integrals threads:           1
    Memory [MiB]:             7152
    Algorithm:                Core
    Integral Cache:           LOAD
    Schwarz Cutoff:          1E-12
    Fitting Condition:       1E-10

   => Auxiliary Basis Set <=

  Basis Set: (AUG-CC-PVTZ AUX)
    Blend: AUG-CC-PVTZ-JKFIT
    Number of shells: 348
    Number of basis functions: 1176
    Number of Cartesian functions: 1446
    Spherical Harmonics?: true
    Max angular momentum: 4

  Minimum eigenvalue in the overlap matrix is 7.4733443314E-06.
  Reciprocal condition number of the overlap matrix is 3.8301918723E-07.
    Using symmetric orthogonalization.

  ==> Pre-Iterations <==

  SCF Guess: Superposition of Atomic Densities via on-the-fly atomic UHF (no occupation information).

   -------------------------
    Irrep   Nso     Nmo    
   -------------------------
     A        552     552 
   -------------------------
    Total     552     552
   -------------------------

  ==> Iterations <==

                           Total Energy        Delta E     RMS |[F,P]|

   @DF-RHF iter SAD:  -153.44561477332294   -1.53446e+02   0.00000e+00 
   @DF-RHF iter   1:  -154.00368366444809   -5.58069e-01   9.37646e-04 ADIIS/DIIS
   @DF-RHF iter   2:  -154.11535557765083   -1.11672e-01   4.96591e-04 ADIIS/DIIS
   @DF-RHF iter   3:  -154.14337687050943   -2.80213e-02   8.40929e-05 DIIS
   @DF-RHF iter   4:  -154.14495606092572   -1.57919e-03   3.22181e-05 DIIS
   @DF-RHF iter   5:  -154.14514372113476   -1.87660e-04   6.20601e-06 DIIS
   @DF-RHF iter   6:  -154.14515397782651   -1.02567e-05   1.42286e-06 DIIS
   @DF-RHF iter   7:  -154.14515471206596   -7.34239e-07   4.05886e-07 DIIS
   @DF-RHF iter   8:  -154.14515476761213   -5.55462e-08   1.29206e-07 DIIS
   @DF-RHF iter   9:  -154.14515477390071   -6.28859e-09   3.32208e-08 DIIS
   @DF-RHF iter  10:  -154.14515477434313   -4.42412e-10   6.31499e-09 DIIS
  Energy and wave function converged.


  ==> Post-Iterations <==

    Orbital Energies [Eh]
    ---------------------

    Doubly Occupied:                                                      

       1A    -20.554019     2A    -11.273757     3A    -11.218878  
       4A     -1.358636     5A     -1.015132     6A     -0.849165  
       7A     -0.684801     8A     -0.624748     9A     -0.613148  
      10A     -0.542901    11A     -0.525837    12A     -0.481710  
      13A     -0.443077  

    Virtual:                                                              

      14A      0.024927    15A      0.033018    16A      0.035232  
      17A      0.038718    18A      0.050199    19A      0.053030  
      20A      0.055467    21A      0.062826    22A      0.065802  
      23A      0.077974    24A      0.078151    25A      0.086071  
      26A      0.100519    27A      0.111574    28A      0.114325  
      29A      0.117419    30A      0.121245    31A      0.128179  
      32A      0.131812    33A      0.138266    34A      0.144421  
      35A      0.146781    36A      0.150098    37A      0.161421  
      38A      0.165331    39A      0.167440    40A      0.178996  
      41A      0.183631    42A      0.192631    43A      0.204301  
      44A      0.207407    45A      0.225025    46A      0.229570  
      47A      0.239652    48A      0.246765    49A      0.249006  
      50A      0.261356    51A      0.269591    52A      0.276377  
      53A      0.284382    54A      0.289477    55A      0.294637  
      56A      0.306945    57A      0.309668    58A      0.312158  
      59A      0.321947    60A      0.325507    61A      0.326963  
      62A      0.336208    63A      0.342535    64A      0.347047  
      65A      0.351303    66A      0.353358    67A      0.356830  
      68A      0.365299    69A      0.372756    70A      0.374690  
      71A      0.386549    72A      0.388183    73A      0.394668  
      74A      0.399227    75A      0.403527    76A      0.420900  
      77A      0.421916    78A      0.429072    79A      0.435490  
      80A      0.437944    81A      0.440889    82A      0.447227  
      83A      0.454125    84A      0.461527    85A      0.468451  
      86A      0.473359    87A      0.475596    88A      0.479758  
      89A      0.485460    90A      0.490299    91A      0.497918  
      92A      0.500758    93A      0.513951    94A      0.520073  
      95A      0.527967    96A      0.529631    97A      0.533425  
      98A      0.541847    99A      0.544471   100A      0.551578  
     101A      0.555944   102A      0.564327   103A      0.571880  
     104A      0.588838   105A      0.595497   106A      0.598332  
     107A      0.612339   108A      0.614261   109A      0.617584  
     110A      0.627237   111A      0.635252   112A      0.641741  
     113A      0.652728   114A      0.655989   115A      0.662205  
     116A      0.667953   117A      0.682545   118A      0.685744  
     119A      0.692087   120A      0.698964   121A      0.710100  
     122A      0.715532   123A      0.727667   124A      0.741220  
     125A      0.748960   126A      0.754387   127A      0.775146  
     128A      0.785200   129A      0.812381   130A      0.820941  
     131A      0.836104   132A      0.839738   133A      0.848990  
     134A      0.858182   135A      0.862452   136A      0.871809  
     137A      0.879130   138A      0.887985   139A      0.893986  
     140A      0.908921   141A      0.916740   142A      0.919687  
     143A      0.927834   144A      0.935206   145A      0.954968  
     146A      0.958716   147A      0.966713   148A      0.982268  
     149A      0.985964   150A      0.997292   151A      1.000509  
     152A      1.006261   153A      1.009191   154A      1.020480  
     155A      1.025560   156A      1.033935   157A      1.044361  
     158A      1.049237   159A      1.057592   160A      1.063437  
     161A      1.069505   162A      1.072507   163A      1.077279  
     164A      1.093786   165A      1.095173   166A      1.104950  
     167A      1.115329   168A      1.122843   169A      1.123200  
     170A      1.130938   171A      1.136698   172A      1.142538  
     173A      1.159066   174A      1.162736   175A      1.167993  
     176A      1.169131   177A      1.173521   178A      1.177558  
     179A      1.186135   180A      1.195011   181A      1.204980  
     182A      1.214570   183A      1.222404   184A      1.225775  
     185A      1.232017   186A      1.240185   187A      1.252187  
     188A      1.262622   189A      1.268587   190A      1.284875  
     191A      1.294102   192A      1.296705   193A      1.301903  
     194A      1.311709   195A      1.317650   196A      1.319710  
     197A      1.324579   198A      1.336247   199A      1.346601  
     200A      1.353564   201A      1.361130   202A      1.378622  
     203A      1.385731   204A      1.395138   205A      1.399088  
     206A      1.403201   207A      1.429655   208A      1.431031  
     209A      1.435998   210A      1.447062   211A      1.454876  
     212A      1.462713   213A      1.475253   214A      1.481032  
     215A      1.491856   216A      1.500435   217A      1.510692  
     218A      1.527816   219A      1.534277   220A      1.542753  
     221A      1.548435   222A      1.570034   223A      1.579087  
     224A      1.589223   225A      1.602529   226A      1.610234  
     227A      1.613898   228A      1.627503   229A      1.639242  
     230A      1.647255   231A      1.652783   232A      1.684141  
     233A      1.691460   234A      1.699030   235A      1.704146  
     236A      1.714372   237A      1.727472   238A      1.736534  
     239A      1.747049   240A      1.753593   241A      1.754291  
     242A      1.771010   243A      1.779601   244A      1.796475  
     245A      1.806690   246A      1.820331   247A      1.826048  
     248A      1.844440   249A      1.849494   250A      1.862904  
     251A      1.867287   252A      1.883036   253A      1.897160  
     254A      1.913637   255A      1.928594   256A      1.937409  
     257A      1.942137   258A      1.954989   259A      1.961025  
     260A      1.974529   261A      1.981453   262A      2.002580  
     263A      2.013820   264A      2.027885   265A      2.031774  
     266A      2.040763   267A      2.054275   268A      2.062684  
     269A      2.071590   270A      2.085692   271A      2.096340  
     272A      2.102402   273A      2.112824   274A      2.129886  
     275A      2.146882   276A      2.157366   277A      2.166971  
     278A      2.181290   279A      2.195286   280A      2.202192  
     281A      2.208225   282A      2.232197   283A      2.246011  
     284A      2.252869   285A      2.267037   286A      2.268161  
     287A      2.290692   288A      2.298427   289A      2.306029  
     290A      2.315759   291A      2.322347   292A      2.341343  
     293A      2.387877   294A      2.398147   295A      2.409113  
     296A      2.424209   297A      2.446595   298A      2.453915  
     299A      2.474185   300A      2.476458   301A      2.504306  
     302A      2.551807   303A      2.566377   304A      2.590220  
     305A      2.636977   306A      2.650071   307A      2.680096  
     308A      2.687336   309A      2.704148   310A      2.732854  
     311A      2.749131   312A      2.769402   313A      2.776332  
     314A      2.790057   315A      2.801093   316A      2.821508  
     317A      2.846379   318A      2.865255   319A      2.888799  
     320A      2.906081   321A      2.922680   322A      2.934627  
     323A      2.939692   324A      2.971849   325A      2.998402  
     326A      3.033504   327A      3.059131   328A      3.078306  
     329A      3.095770   330A      3.129969   331A      3.141907  
     332A      3.158784   333A      3.211510   334A      3.237828  
     335A      3.266060   336A      3.281024   337A      3.322625  
     338A      3.371343   339A      3.432322   340A      3.444040  
     341A      3.472480   342A      3.515385   343A      3.517959  
     344A      3.540486   345A      3.572010   346A      3.580898  
     347A      3.636069   348A      3.671529   349A      3.683461  
     350A      3.688674   351A      3.713692   352A      3.720600  
     353A      3.729095   354A      3.754753   355A      3.792611  
     356A      3.799242   357A      3.819816   358A      3.833108  
     359A      3.845335   360A      3.868770   361A      3.897086  
     362A      3.948929   363A      3.956549   364A      3.977034  
     365A      3.984155   366A      3.995822   367A      4.006233  
     368A      4.033859   369A      4.052391   370A      4.074585  
     371A      4.116002   372A      4.128823   373A      4.146036  
     374A      4.153550   375A      4.171006   376A      4.178476  
     377A      4.195527   378A      4.201674   379A      4.212077  
     380A      4.223410   381A      4.232697   382A      4.256081  
     383A      4.278820   384A      4.294162   385A      4.316462  
     386A      4.324287   387A      4.333747   388A      4.361374  
     389A      4.377175   390A      4.383670   391A      4.418403  
     392A      4.434904   393A      4.451039   394A      4.463205  
     395A      4.497661   396A      4.506191   397A      4.520829  
     398A      4.536618   399A      4.561647   400A      4.580581  
     401A      4.615640   402A      4.625671   403A      4.639112  
     404A      4.650701   405A      4.653289   406A      4.666448  
     407A      4.686675   408A      4.705843   409A      4.718571  
     410A      4.735711   411A      4.746420   412A      4.755323  
     413A      4.775581   414A      4.787086   415A      4.825683  
     416A      4.837563   417A      4.862762   418A      4.880590  
     419A      4.890561   420A      4.902910   421A      4.912449  
     422A      4.919300   423A      4.947320   424A      4.955570  
     425A      4.972896   426A      4.985524   427A      5.003309  
     428A      5.015998   429A      5.038549   430A      5.050802  
     431A      5.056103   432A      5.068781   433A      5.081145  
     434A      5.097735   435A      5.136292   436A      5.161730  
     437A      5.167059   438A      5.184752   439A      5.201789  
     440A      5.228805   441A      5.238846   442A      5.250780  
     443A      5.258589   444A      5.270164   445A      5.304275  
     446A      5.330140   447A      5.366350   448A      5.388469  
     449A      5.404552   450A      5.410792   451A      5.417634  
     452A      5.443124   453A      5.451659   454A      5.480292  
     455A      5.502294   456A      5.532712   457A      5.543340  
     458A      5.556467   459A      5.568500   460A      5.582172  
     461A      5.589416   462A      5.618492   463A      5.641419  
     464A      5.650721   465A      5.657766   466A      5.671398  
     467A      5.705003   468A      5.721928   469A      5.743769  
     470A      5.758928   471A      5.761865   472A      5.797873  
     473A      5.813793   474A      5.833065   475A      5.862879  
     476A      5.932134   477A      5.955512   478A      5.989981  
     479A      6.018230   480A      6.045462   481A      6.088846  
     482A      6.099862   483A      6.138240   484A      6.139779  
     485A      6.182863   486A      6.219682   487A      6.255205  
     488A      6.276294   489A      6.279519   490A      6.296611  
     491A      6.361881   492A      6.380183   493A      6.424967  
     494A      6.483959   495A      6.571245   496A      6.751063  
     497A      6.804503   498A      6.811278   499A      6.842305  
     500A      6.896128   501A      6.908288   502A      6.988216  
     503A      7.019524   504A      7.083863   505A      7.119516  
     506A      7.160589   507A      7.170307   508A      7.200223  
     509A      7.237399   510A      7.382392   511A      7.408943  
     512A      7.450975   513A      7.545645   514A      7.617049  
     515A      7.710886   516A      7.797741   517A      7.847800  
     518A      7.862490   519A      7.885471   520A      7.904902  
     521A      7.937798   522A      7.962283   523A      8.002007  
     524A      8.070080   525A      8.189973   526A      8.240470  
     527A      8.289965   528A      8.328066   529A      8.369520  
     530A      8.440687   531A      8.479376   532A      8.681739  
     533A      8.734194   534A      8.951323   535A      9.077006  
     536A     10.047076   537A     10.146417   538A     10.324857  
     539A     10.430022   540A     10.676523   541A     10.815222  
     542A     11.154680   543A     12.118793   544A     12.487507  
     545A     13.353500   546A     14.346161   547A     16.642681  
     548A     17.826837   549A     18.744312   550A     53.027445  
     551A     54.392935   552A     68.000992  

    Final Occupation by Irrep:
              A 
    DOCC [    13 ]
    NA   [    13 ]
    NB   [    13 ]

  @DF-RHF Final Energy:  -154.14515477434313

   => Energetics <=

    Nuclear Repulsion Energy =             82.0682365398525349
    One-Electron Energy =                -372.0551650084823336
    Two-Electron Energy =                 135.8417736942866725
    Total Energy =                       -154.1451547743431263

Computation Completed


Properties will be evaluated at   0.000000,   0.000000,   0.000000 [a0]

Properties computed using the SCF density matrix


 Multipole Moments:

 ------------------------------------------------------------------------------------
     Multipole            Electronic (a.u.)      Nuclear  (a.u.)        Total (a.u.)
 ------------------------------------------------------------------------------------

 L = 1.  Multiply by 2.5417464519 to convert [e a0] to [Debye]
 Dipole X            :        -83.7898751           84.3479048            0.5580298
 Dipole Y            :          0.2578876            0.1898362            0.4477238
 Dipole Z            :         -4.1982585            4.1907398           -0.0075187
 Magnitude           :                                                    0.7154791

 ------------------------------------------------------------------------------------

*** tstop() called on moses-razer at Sun Mar  2 02:12:07 2025
Module time:
	user time   =     100.84 seconds =       1.68 minutes
	system time =       1.34 seconds =       0.02 minutes
	total time  =        102 seconds =       1.70 minutes
Total time:
	user time   =     274.03 seconds =       4.57 minutes
	system time =       5.55 seconds =       0.09 minutes
	total time  =        280 seconds =       4.67 minutes

  //>>>>>>>>>>>>>>>>>>>>>>>>>>>>>>>>>>>//
  //            Monomer B HF           //
  //<<<<<<<<<<<<<<<<<<<<<<<<<<<<<<<<<<<//

   => Libint2 <=

    Primary   basis highest AM E, G, H:  5, 4, 3
    Auxiliary basis highest AM E, G, H:  6, 5, 4
    Onebody   basis highest AM E, G, H:  6, 5, 4
    Solid Harmonics ordering:            gaussian

*** tstart() called on moses-razer
*** at Sun Mar  2 02:12:07 2025

   => Loading Basis Set <=

    Name: AUG-CC-PVTZ
    Role: ORBITAL
    Keyword: BASIS
    atoms 1-2, 10-11 entry C          line   239 file /home/kchung25/anaconda3/envs/p415env/share/psi4/basis/aug-cc-pvtz.gbs 
    atoms 3, 12      entry O          line   331 file /home/kchung25/anaconda3/envs/p415env/share/psi4/basis/aug-cc-pvtz.gbs 
    atoms 4-9, 13-18 entry H          line    40 file /home/kchung25/anaconda3/envs/p415env/share/psi4/basis/aug-cc-pvtz.gbs 


         ---------------------------------------------------------
                                   SCF
               by Justin Turney, Rob Parrish, Andy Simmonett
                          and Daniel G. A. Smith
                              RHF Reference
                        1 Threads,   9536 MiB Core
         ---------------------------------------------------------

  ==> Geometry <==

    Molecular point group: c1
    Full point group: C1

    Geometry (in Angstrom), charge = 0, multiplicity = 1:

       Center              X                  Y                   Z               Mass       
    ------------   -----------------  -----------------  -----------------  -----------------
      Gh(C)           2.029754000000     1.123131000000    -0.290571000000    12.000000000000
      Gh(C)           1.890340000000    -0.376706000000    -0.296268000000    12.000000000000
      Gh(O)           1.144521000000    -0.851246000000     0.810495000000    15.994914619570
      Gh(H)           1.540555000000    -0.528261000000     1.623714000000     1.007825032230
      Gh(H)           2.574105000000     1.469398000000    -1.171008000000     1.007825032230
      Gh(H)           2.579304000000     1.463015000000     0.592339000000     1.007825032230
      Gh(H)           1.046994000000     1.600385000000    -0.283454000000     1.007825032230
      Gh(H)           2.875799000000    -0.859264000000    -0.326945000000     1.007825032230
      Gh(H)           1.341500000000    -0.713398000000    -1.179928000000     1.007825032230
         C           -2.047126000000     0.925428000000     0.637739000000    12.000000000000
         C           -1.738244000000     0.151549000000    -0.621663000000    12.000000000000
         O           -1.422060000000    -1.189958000000    -0.368607000000    15.994914619570
         H           -0.641977000000    -1.205023000000     0.205750000000     1.007825032230
         H           -2.319559000000     1.959603000000     0.413595000000     1.007825032230
         H           -1.176827000000     0.940892000000     1.300407000000     1.007825032230
         H           -2.872421000000     0.458961000000     1.179293000000     1.007825032230
         H           -0.928504000000     0.655062000000    -1.177321000000     1.007825032230
         H           -2.607004000000     0.147853000000    -1.286962000000     1.007825032230

  Running in c1 symmetry.

  Rotational constants: A =      0.14847  B =      0.05283  C =      0.04689 [cm^-1]
  Rotational constants: A =   4450.90433  B =   1583.68384  C =   1405.84345 [MHz]
  Nuclear repulsion =   82.213739526993052

  Charge       = 0
  Multiplicity = 1
  Electrons    = 26
  Nalpha       = 13
  Nbeta        = 13

  ==> Algorithm <==

  SCF Algorithm Type is DF.
  DIIS enabled.
  MOM disabled.
  Fractional occupation disabled.
  Guess Type is SAD.
  Energy threshold   = 1.00e-08
  Density threshold  = 1.00e-08
  Integral threshold = 1.00e-12

  ==> Primary Basis <==

  Basis Set: AUG-CC-PVTZ
    Blend: AUG-CC-PVTZ
    Number of shells: 192
    Number of basis functions: 552
    Number of Cartesian functions: 630
    Spherical Harmonics?: true
    Max angular momentum: 3

   => Loading Basis Set <=

    Name: (AUG-CC-PVTZ AUX)
    Role: JKFIT
    Keyword: DF_BASIS_SCF
    atoms 1-2, 10-11 entry C          line   162 file /home/kchung25/anaconda3/envs/p415env/share/psi4/basis/aug-cc-pvtz-jkfit.gbs 
    atoms 3, 12      entry O          line   286 file /home/kchung25/anaconda3/envs/p415env/share/psi4/basis/aug-cc-pvtz-jkfit.gbs 
    atoms 4-9, 13-18 entry H          line    70 file /home/kchung25/anaconda3/envs/p415env/share/psi4/basis/aug-cc-pvtz-jkfit.gbs 

  ==> Integral Setup <==

  ==> DiskDFJK: Density-Fitted J/K Matrices <==

    J tasked:                  Yes
    K tasked:                  Yes
    wK tasked:                  No
    OpenMP threads:              1
    Integrals threads:           1
    Memory [MiB]:             7152
    Algorithm:                Core
    Integral Cache:           LOAD
    Schwarz Cutoff:          1E-12
    Fitting Condition:       1E-10

   => Auxiliary Basis Set <=

  Basis Set: (AUG-CC-PVTZ AUX)
    Blend: AUG-CC-PVTZ-JKFIT
    Number of shells: 348
    Number of basis functions: 1176
    Number of Cartesian functions: 1446
    Spherical Harmonics?: true
    Max angular momentum: 4

  Minimum eigenvalue in the overlap matrix is 7.4733443314E-06.
  Reciprocal condition number of the overlap matrix is 3.8301918723E-07.
    Using symmetric orthogonalization.

  ==> Pre-Iterations <==

  SCF Guess: Superposition of Atomic Densities via on-the-fly atomic UHF (no occupation information).

   -------------------------
    Irrep   Nso     Nmo    
   -------------------------
     A        552     552 
   -------------------------
    Total     552     552
   -------------------------

  ==> Iterations <==

                           Total Energy        Delta E     RMS |[F,P]|

   @DF-RHF iter SAD:  -153.46334897786119   -1.53463e+02   0.00000e+00 
   @DF-RHF iter   1:  -154.00259675133634   -5.39248e-01   9.37645e-04 ADIIS/DIIS
   @DF-RHF iter   2:  -154.11471695846711   -1.12120e-01   4.96035e-04 ADIIS/DIIS
   @DF-RHF iter   3:  -154.14284253830618   -2.81256e-02   8.38650e-05 DIIS
   @DF-RHF iter   4:  -154.14442845471135   -1.58592e-03   3.21661e-05 DIIS
   @DF-RHF iter   5:  -154.14461556321055   -1.87108e-04   6.25675e-06 DIIS
   @DF-RHF iter   6:  -154.14462609064134   -1.05274e-05   1.45399e-06 DIIS
   @DF-RHF iter   7:  -154.14462685748364   -7.66842e-07   4.18465e-07 DIIS
   @DF-RHF iter   8:  -154.14462691589245   -5.84088e-08   1.31546e-07 DIIS
   @DF-RHF iter   9:  -154.14462692239445   -6.50201e-09   3.35522e-08 DIIS
   @DF-RHF iter  10:  -154.14462692284496   -4.50513e-10   6.50259e-09 DIIS
  Energy and wave function converged.


  ==> Post-Iterations <==

    Orbital Energies [Eh]
    ---------------------

    Doubly Occupied:                                                      

       1A    -20.557551     2A    -11.273275     3A    -11.217659  
       4A     -1.364550     5A     -1.013020     6A     -0.847043  
       7A     -0.688726     8A     -0.627778     9A     -0.609864  
      10A     -0.545173    11A     -0.527411    12A     -0.479261  
      13A     -0.441779  

    Virtual:                                                              

      14A      0.019756    15A      0.033372    16A      0.034832  
      17A      0.038403    18A      0.051205    19A      0.052488  
      20A      0.053396    21A      0.063053    22A      0.064899  
      23A      0.077096    24A      0.079379    25A      0.081018  
      26A      0.091406    27A      0.107828    28A      0.114093  
      29A      0.116418    30A      0.118243    31A      0.125422  
      32A      0.128188    33A      0.139977    34A      0.144077  
      35A      0.147624    36A      0.149243    37A      0.159881  
      38A      0.164166    39A      0.165146    40A      0.172376  
      41A      0.186064    42A      0.192681    43A      0.198171  
      44A      0.206981    45A      0.213635    46A      0.225377  
      47A      0.230255    48A      0.244323    49A      0.254519  
      50A      0.259295    51A      0.268771    52A      0.277593  
      53A      0.280566    54A      0.285158    55A      0.290395  
      56A      0.304395    57A      0.308335    58A      0.318245  
      59A      0.321822    60A      0.326944    61A      0.330727  
      62A      0.334647    63A      0.339936    64A      0.340634  
      65A      0.344216    66A      0.345714    67A      0.354389  
      68A      0.359292    69A      0.363625    70A      0.373040  
      71A      0.378300    72A      0.381754    73A      0.390743  
      74A      0.396918    75A      0.403512    76A      0.407969  
      77A      0.413936    78A      0.419508    79A      0.425449  
      80A      0.430426    81A      0.440682    82A      0.444089  
      83A      0.453250    84A      0.457210    85A      0.462218  
      86A      0.467406    87A      0.469396    88A      0.479544  
      89A      0.488030    90A      0.489233    91A      0.501317  
      92A      0.507727    93A      0.510104    94A      0.512790  
      95A      0.520871    96A      0.527749    97A      0.532235  
      98A      0.541141    99A      0.543843   100A      0.552530  
     101A      0.561123   102A      0.564035   103A      0.568356  
     104A      0.586516   105A      0.588509   106A      0.594690  
     107A      0.600755   108A      0.606240   109A      0.616873  
     110A      0.622497   111A      0.626249   112A      0.638511  
     113A      0.640567   114A      0.653022   115A      0.657242  
     116A      0.672200   117A      0.673424   118A      0.682121  
     119A      0.689901   120A      0.700592   121A      0.704189  
     122A      0.713848   123A      0.724056   124A      0.731825  
     125A      0.739882   126A      0.758371   127A      0.766571  
     128A      0.782823   129A      0.789927   130A      0.801991  
     131A      0.811799   132A      0.827260   133A      0.845411  
     134A      0.846950   135A      0.849977   136A      0.857466  
     137A      0.868423   138A      0.878533   139A      0.893131  
     140A      0.899759   141A      0.912049   142A      0.918308  
     143A      0.925369   144A      0.926974   145A      0.944391  
     146A      0.950334   147A      0.958017   148A      0.964232  
     149A      0.970804   150A      0.980715   151A      0.995613  
     152A      1.000859   153A      1.009427   154A      1.012264  
     155A      1.028689   156A      1.032759   157A      1.044088  
     158A      1.049725   159A      1.055241   160A      1.060818  
     161A      1.064667   162A      1.071248   163A      1.079933  
     164A      1.090144   165A      1.093321   166A      1.098965  
     167A      1.106903   168A      1.110128   169A      1.111727  
     170A      1.125942   171A      1.131226   172A      1.139357  
     173A      1.143838   174A      1.152791   175A      1.156354  
     176A      1.167532   177A      1.173023   178A      1.184614  
     179A      1.189357   180A      1.203263   181A      1.212792  
     182A      1.214227   183A      1.218142   184A      1.222107  
     185A      1.237326   186A      1.238588   187A      1.251217  
     188A      1.254029   189A      1.261562   190A      1.267523  
     191A      1.278354   192A      1.284768   193A      1.295209  
     194A      1.301409   195A      1.309699   196A      1.320269  
     197A      1.325950   198A      1.342034   199A      1.343943  
     200A      1.351793   201A      1.358635   202A      1.370816  
     203A      1.378006   204A      1.389694   205A      1.391949  
     206A      1.407747   207A      1.412940   208A      1.420464  
     209A      1.433097   210A      1.435605   211A      1.445127  
     212A      1.451573   213A      1.459067   214A      1.479614  
     215A      1.487688   216A      1.498391   217A      1.500180  
     218A      1.502619   219A      1.523389   220A      1.536170  
     221A      1.542521   222A      1.547091   223A      1.562726  
     224A      1.579157   225A      1.580594   226A      1.591875  
     227A      1.596822   228A      1.605869   229A      1.631433  
     230A      1.637313   231A      1.660004   232A      1.668023  
     233A      1.678584   234A      1.682753   235A      1.699582  
     236A      1.704255   237A      1.710784   238A      1.723971  
     239A      1.726816   240A      1.746755   241A      1.748508  
     242A      1.753359   243A      1.769943   244A      1.778735  
     245A      1.788266   246A      1.793424   247A      1.813211  
     248A      1.818426   249A      1.837516   250A      1.853076  
     251A      1.862097   252A      1.870967   253A      1.876989  
     254A      1.882045   255A      1.909108   256A      1.918983  
     257A      1.922959   258A      1.930528   259A      1.953135  
     260A      1.965971   261A      1.973149   262A      1.986523  
     263A      2.005822   264A      2.012237   265A      2.016764  
     266A      2.032451   267A      2.041580   268A      2.064280  
     269A      2.073937   270A      2.075674   271A      2.091322  
     272A      2.104872   273A      2.116155   274A      2.127211  
     275A      2.134007   276A      2.147131   277A      2.161823  
     278A      2.171573   279A      2.176625   280A      2.203962  
     281A      2.207645   282A      2.234952   283A      2.244651  
     284A      2.257028   285A      2.260019   286A      2.265871  
     287A      2.275183   288A      2.287304   289A      2.290999  
     290A      2.308716   291A      2.314520   292A      2.345205  
     293A      2.370274   294A      2.391390   295A      2.403910  
     296A      2.433260   297A      2.448907   298A      2.462942  
     299A      2.473305   300A      2.492737   301A      2.509827  
     302A      2.535283   303A      2.561938   304A      2.580374  
     305A      2.610036   306A      2.626164   307A      2.628523  
     308A      2.670446   309A      2.676040   310A      2.687402  
     311A      2.732167   312A      2.747973   313A      2.763346  
     314A      2.792543   315A      2.807327   316A      2.822124  
     317A      2.832996   318A      2.850433   319A      2.874894  
     320A      2.883965   321A      2.907157   322A      2.930644  
     323A      2.953723   324A      2.965096   325A      2.985503  
     326A      3.024401   327A      3.052466   328A      3.103772  
     329A      3.110101   330A      3.136110   331A      3.152002  
     332A      3.163369   333A      3.207599   334A      3.217014  
     335A      3.231754   336A      3.256689   337A      3.280744  
     338A      3.337204   339A      3.380491   340A      3.403886  
     341A      3.417897   342A      3.472328   343A      3.503789  
     344A      3.523877   345A      3.534997   346A      3.571768  
     347A      3.592747   348A      3.618645   349A      3.632721  
     350A      3.663601   351A      3.670003   352A      3.684435  
     353A      3.697248   354A      3.729512   355A      3.770906  
     356A      3.785020   357A      3.802070   358A      3.810219  
     359A      3.851303   360A      3.859203   361A      3.891067  
     362A      3.926879   363A      3.934679   364A      3.960824  
     365A      3.975673   366A      3.988602   367A      4.008346  
     368A      4.036758   369A      4.047974   370A      4.065431  
     371A      4.081408   372A      4.123389   373A      4.138376  
     374A      4.164657   375A      4.168718   376A      4.178658  
     377A      4.182214   378A      4.196973   379A      4.208040  
     380A      4.227850   381A      4.241530   382A      4.260657  
     383A      4.277416   384A      4.285006   385A      4.317750  
     386A      4.320335   387A      4.334542   388A      4.350377  
     389A      4.373544   390A      4.392826   391A      4.412834  
     392A      4.429141   393A      4.450394   394A      4.467377  
     395A      4.480144   396A      4.509788   397A      4.511462  
     398A      4.542670   399A      4.552535   400A      4.587427  
     401A      4.597708   402A      4.610814   403A      4.619818  
     404A      4.631233   405A      4.636709   406A      4.651040  
     407A      4.681835   408A      4.692530   409A      4.702763  
     410A      4.727844   411A      4.755823   412A      4.760062  
     413A      4.770682   414A      4.784309   415A      4.799615  
     416A      4.815130   417A      4.845925   418A      4.857821  
     419A      4.869525   420A      4.890466   421A      4.901365  
     422A      4.918383   423A      4.921057   424A      4.958507  
     425A      4.968709   426A      4.981335   427A      5.002262  
     428A      5.006241   429A      5.032637   430A      5.039567  
     431A      5.041400   432A      5.065693   433A      5.082113  
     434A      5.090603   435A      5.109931   436A      5.123217  
     437A      5.158368   438A      5.165189   439A      5.192200  
     440A      5.215682   441A      5.221442   442A      5.248325  
     443A      5.267264   444A      5.279925   445A      5.307236  
     446A      5.328917   447A      5.350707   448A      5.358791  
     449A      5.368628   450A      5.395893   451A      5.405837  
     452A      5.427877   453A      5.440430   454A      5.448230  
     455A      5.488719   456A      5.525543   457A      5.549949  
     458A      5.555837   459A      5.557638   460A      5.568963  
     461A      5.584464   462A      5.597940   463A      5.626246  
     464A      5.630417   465A      5.664836   466A      5.669631  
     467A      5.675189   468A      5.706213   469A      5.719833  
     470A      5.731423   471A      5.760874   472A      5.770874  
     473A      5.801367   474A      5.817002   475A      5.863194  
     476A      5.877272   477A      5.936681   478A      5.993756  
     479A      6.015128   480A      6.031962   481A      6.063123  
     482A      6.106511   483A      6.140662   484A      6.142175  
     485A      6.197716   486A      6.207675   487A      6.246441  
     488A      6.258183   489A      6.282936   490A      6.311053  
     491A      6.324367   492A      6.398631   493A      6.417671  
     494A      6.488613   495A      6.530116   496A      6.742722  
     497A      6.779189   498A      6.791944   499A      6.821289  
     500A      6.850104   501A      6.886548   502A      6.984636  
     503A      7.020610   504A      7.037731   505A      7.041690  
     506A      7.098023   507A      7.156105   508A      7.198650  
     509A      7.205836   510A      7.366319   511A      7.443703  
     512A      7.466096   513A      7.567377   514A      7.585637  
     515A      7.678935   516A      7.793383   517A      7.825781  
     518A      7.851103   519A      7.868278   520A      7.892791  
     521A      7.947691   522A      8.014436   523A      8.064307  
     524A      8.099205   525A      8.135497   526A      8.200621  
     527A      8.299290   528A      8.305103   529A      8.337517  
     530A      8.388526   531A      8.402303   532A      8.604741  
     533A      8.770263   534A      8.930933   535A      9.011027  
     536A     10.062444   537A     10.105477   538A     10.241894  
     539A     10.388097   540A     10.692099   541A     10.728424  
     542A     11.047266   543A     12.024609   544A     12.572894  
     545A     13.321671   546A     14.116871   547A     16.927659  
     548A     17.850068   549A     18.654811   550A     52.947298  
     551A     54.583662   552A     67.347253  

    Final Occupation by Irrep:
              A 
    DOCC [    13 ]
    NA   [    13 ]
    NB   [    13 ]

  @DF-RHF Final Energy:  -154.14462692284496

   => Energetics <=

    Nuclear Repulsion Energy =             82.2137395269930522
    One-Electron Energy =                -372.3305524969944145
    Two-Electron Energy =                 135.9721860471564128
    Total Energy =                       -154.1446269228449637

Computation Completed


Properties will be evaluated at   0.000000,   0.000000,   0.000000 [a0]

Properties computed using the SCF density matrix


 Multipole Moments:

 ------------------------------------------------------------------------------------
     Multipole            Electronic (a.u.)      Nuclear  (a.u.)        Total (a.u.)
 ------------------------------------------------------------------------------------

 L = 1.  Multiply by 2.5417464519 to convert [e a0] to [Debye]
 Dipole X            :         84.6560848          -84.3479105            0.3081743
 Dipole Y            :          0.7631951           -0.1898305            0.5733646
 Dipole Z            :          4.4555112           -4.1907285            0.2647827
 Magnitude           :                                                    0.7027291

 ------------------------------------------------------------------------------------

*** tstop() called on moses-razer at Sun Mar  2 02:13:48 2025
Module time:
	user time   =      99.23 seconds =       1.65 minutes
	system time =       1.44 seconds =       0.02 minutes
	total time  =        101 seconds =       1.68 minutes
Total time:
	user time   =     373.26 seconds =       6.22 minutes
	system time =       6.99 seconds =       0.12 minutes
	total time  =        381 seconds =       6.35 minutes
  Constructing Basis Sets for SAPT...

   => Loading Basis Set <=

    Name: (AUG-CC-PVTZ AUX)
    Role: RIFIT
    Keyword: DF_BASIS_SAPT
    atoms 1-2, 10-11 entry C          line   148 file /home/kchung25/anaconda3/envs/p415env/share/psi4/basis/aug-cc-pvtz-ri.gbs 
    atoms 3, 12      entry O          line   264 file /home/kchung25/anaconda3/envs/p415env/share/psi4/basis/aug-cc-pvtz-ri.gbs 
    atoms 4-9, 13-18 entry H          line    30 file /home/kchung25/anaconda3/envs/p415env/share/psi4/basis/aug-cc-pvtz-ri.gbs 

   => Loading Basis Set <=

    Name: (AUG-CC-PVTZ AUX)
    Role: JKFIT
    Keyword: DF_BASIS_ELST
    atoms 1-2, 10-11 entry C          line   162 file /home/kchung25/anaconda3/envs/p415env/share/psi4/basis/aug-cc-pvtz-jkfit.gbs 
    atoms 3, 12      entry O          line   286 file /home/kchung25/anaconda3/envs/p415env/share/psi4/basis/aug-cc-pvtz-jkfit.gbs 
    atoms 4-9, 13-18 entry H          line    70 file /home/kchung25/anaconda3/envs/p415env/share/psi4/basis/aug-cc-pvtz-jkfit.gbs 


  //>>>>>>>>>>>>>>>>>>>>>>>>>>>>>>>>>>>//
  //               SAPT2+              //
  //<<<<<<<<<<<<<<<<<<<<<<<<<<<<<<<<<<<//


*** tstart() called on moses-razer
*** at Sun Mar  2 02:13:48 2025

        SAPT2+  
    Ed Hohenstein
     6 June 2009

      Orbital Information
  --------------------------
    NSO        =       552
    NMO        =       552
    NRI        =      1188
    NOCC A     =        13
    NOCC B     =        13
    FOCC A     =         0
    FOCC B     =         0
    NVIR A     =       539
    NVIR B     =       539

    Estimated memory usage: 3939.5 MB

    Natural Orbital Cutoff:   1.000E-06
    Disp(T3) Truncation:            Yes
    CCD (vv|vv) Truncation:         Yes
    MBPT T2 Truncation:             Yes

    Monomer A: 304 virtual orbitals dropped
    Monomer B: 306 virtual orbitals dropped

    Elst10,r            =    -0.014179423083 [Eh]
    Exch10 (S^2)        =     0.015599415485 [Eh]
    Exch10              =     0.015699070413 [Eh]
    Ind20,r (A<-B)      =    -0.003568864200 [Eh]
    Ind20,r (B<-A)      =    -0.002831578754 [Eh]
    Ind20,r             =    -0.006400442954 [Eh]
    Exch-Ind20,r (A<-B) =     0.001812980029 [Eh]
    Exch-Ind20,r (B<-A) =     0.002034084571 [Eh]
    Exch-Ind20,r        =     0.003847064600 [Eh]
    Disp20              =    -0.009934491857 [Eh]
    Disp20 (NO)         =    -0.008817843499 [Eh]
    Exch-Disp20         =     0.001350151383 [Eh]
    Elst12,r            =    -0.000354170301 [Eh]
    Exch11              =     0.000167420136 [Eh]
    Exch12              =     0.002497379279 [Eh]
    Ind22               =    -0.001124053544 [Eh]
    Disp21              =     0.000645869242 [Eh]
    Disp22 (SDQ)        =    -0.000031081040 [Eh]

    (i =   1 of  13)        265 seconds
    (i =   2 of  13)        511 seconds
    (i =   3 of  13)        757 seconds
    (i =   4 of  13)       1003 seconds
    (i =   5 of  13)       1348 seconds
    (i =   6 of  13)       1620 seconds
    (i =   7 of  13)       1888 seconds
    (i =   8 of  13)       2133 seconds
    (i =   9 of  13)       2383 seconds
    (i =  10 of  13)       2633 seconds
    (i =  11 of  13)       2897 seconds
    (i =  12 of  13)       3248 seconds
    (i =  13 of  13)       3494 seconds

    Disp220 (T)         =    -0.000726945291 [Eh]

    (i =   1 of  13)        256 seconds
    (i =   2 of  13)        686 seconds
    (i =   3 of  13)       1148 seconds
    (i =   4 of  13)       1611 seconds
    (i =   5 of  13)       1934 seconds
    (i =   6 of  13)       2165 seconds
    (i =   7 of  13)       2463 seconds
    (i =   8 of  13)       2708 seconds
    (i =   9 of  13)       2954 seconds
    (i =  10 of  13)       3199 seconds
    (i =  11 of  13)       3465 seconds
    (i =  12 of  13)       3702 seconds
    (i =  13 of  13)       3943 seconds

    Disp202 (T)         =    -0.000760071401 [Eh]

    Disp22 (T)          =    -0.001487016692 [Eh]

    Est. Disp220 (T)    =    -0.000819002070 [Eh]
    Est. Disp202 (T)    =    -0.000856323107 [Eh]

    Est. Disp22 (T)     =    -0.001675325177 [Eh]

    SAPT Results 
  --------------------------------------------------------------------------------------------------------
    Electrostatics                -14.53359338 [mEh]      -9.11996754 [kcal/mol]     -38.15794417 [kJ/mol]
      Elst10,r                    -14.17942308 [mEh]      -8.89772232 [kcal/mol]     -37.22807018 [kJ/mol]
      Elst12,r                     -0.35417030 [mEh]      -0.22224522 [kcal/mol]      -0.92987400 [kJ/mol]

    Exchange                       18.36386983 [mEh]      11.52350229 [kcal/mol]      48.21433359 [kJ/mol]
      Exch10                       15.69907041 [mEh]       9.85131541 [kcal/mol]      41.21790369 [kJ/mol]
      Exch10(S^2)                  15.59941548 [mEh]       9.78878100 [kcal/mol]      40.95625971 [kJ/mol]
      Exch11(S^2)                   0.16742014 [mEh]       0.10505772 [kcal/mol]       0.43956151 [kJ/mol]
      Exch12(S^2)                   2.49737928 [mEh]       1.56712916 [kcal/mol]       6.55686839 [kJ/mol]

    Induction                      -4.89799706 [mEh]      -3.07353956 [kcal/mol]     -12.85968950 [kJ/mol]
      Ind20,r                      -6.40044295 [mEh]      -4.01633859 [kcal/mol]     -16.80436066 [kJ/mol]
      Ind22                        -1.12405354 [mEh]      -0.70535425 [kcal/mol]      -2.95120217 [kJ/mol]
      Exch-Ind20,r                  3.84706460 [mEh]       2.41406948 [kcal/mol]      10.10046672 [kJ/mol]
      Exch-Ind22                    0.67562614 [mEh]       0.42396181 [kcal/mol]       1.77385620 [kJ/mol]
      delta HF,r (2)               -1.89619130 [mEh]      -1.18987801 [kcal/mol]      -4.97844958 [kJ/mol]

    Dispersion                     -9.64487745 [mEh]      -6.05225197 [kcal/mol]     -25.32262225 [kJ/mol]
      Disp20                       -9.93449186 [mEh]      -6.23398776 [kcal/mol]     -26.08300478 [kJ/mol]
      Disp21                        0.64586924 [mEh]       0.40528907 [kcal/mol]       1.69572946 [kJ/mol]
      Disp22 (SDQ)                 -0.03108104 [mEh]      -0.01950365 [kcal/mol]      -0.08160326 [kJ/mol]
      Disp22 (T)                   -1.48701669 [mEh]      -0.93311706 [kcal/mol]      -3.90416179 [kJ/mol]
      Est. Disp22 (T)              -1.67532518 [mEh]      -1.05128242 [kcal/mol]      -4.39856565 [kJ/mol]
      Exch-Disp20                   1.35015138 [mEh]       0.84723278 [kcal/mol]       3.54482197 [kJ/mol]

  Total HF                         -2.92992233 [mEh]      -1.83855402 [kcal/mol]      -7.69251001 [kJ/mol]
  Total SAPT0                     -11.51426280 [mEh]      -7.22530899 [kcal/mol]     -30.23069282 [kJ/mol]
  Total SAPT2                      -9.65206109 [mEh]      -6.05675977 [kcal/mol]     -25.34148289 [kJ/mol]
  Total SAPT2+                    -10.71259806 [mEh]      -6.72225677 [kcal/mol]     -28.12592234 [kJ/mol]

  Special recipe for scaled SAPT0 (see Manual):
    Electrostatics sSAPT0         -14.17942308 [mEh]      -8.89772232 [kcal/mol]     -37.22807018 [kJ/mol]
    Exchange sSAPT0                15.69907041 [mEh]       9.85131541 [kcal/mol]      41.21790369 [kJ/mol]
    Induction sSAPT0               -4.37536816 [mEh]      -2.74558497 [kcal/mol]     -11.48752752 [kJ/mol]
    Dispersion sSAPT0              -8.55829899 [mEh]      -5.37041370 [kcal/mol]     -22.46981091 [kJ/mol]
  Total sSAPT0                    -11.41401982 [mEh]      -7.16240557 [kcal/mol]     -29.96750492 [kJ/mol]
  --------------------------------------------------------------------------------------------------------

*** tstop() called on moses-razer at Sun Mar  2 04:49:11 2025
Module time:
	user time   =    9194.84 seconds =     153.25 minutes
	system time =     119.28 seconds =       1.99 minutes
	total time  =       9323 seconds =     155.38 minutes
Total time:
	user time   =    9568.33 seconds =     159.47 minutes
	system time =     126.27 seconds =       2.10 minutes
	total time  =       9704 seconds =     161.73 minutes

    Psi4 stopped on: Sunday, 02 March 2025 04:49AM
    Psi4 wall time for execution: 2:41:44.98

*** Psi4 exiting successfully. Buy a developer a beer!
