
    -----------------------------------------------------------------------
          Psi4: An Open-Source Ab Initio Electronic Structure Package
                               Psi4 1.9 release

                         Git: Rev {} zzzzzzz 


    D. G. A. Smith, L. A. Burns, A. C. Simmonett, R. M. Parrish,
    M. C. Schieber, R. Galvelis, P. Kraus, H. Kruse, R. Di Remigio,
    A. Alenaizan, A. M. James, S. Lehtola, J. P. Misiewicz, M. Scheurer,
    R. A. Shaw, J. B. Schriber, Y. Xie, Z. L. Glick, D. A. Sirianni,
    J. S. O'Brien, J. M. Waldrop, A. Kumar, E. G. Hohenstein,
    B. P. Pritchard, B. R. Brooks, H. F. Schaefer III, A. Yu. Sokolov,
    K. Patkowski, A. E. DePrince III, U. Bozkaya, R. A. King,
    F. A. Evangelista, J. M. Turney, T. D. Crawford, C. D. Sherrill,
    J. Chem. Phys. 152(18) 184108 (2020). https://doi.org/10.1063/5.0006002

                            Additional Code Authors
    E. T. Seidl, C. L. Janssen, E. F. Valeev, M. L. Leininger,
    J. F. Gonthier, R. M. Richard, H. R. McAlexander, M. Saitow, X. Wang,
    P. Verma, M. H. Lechner, A. Jiang, S. Behnle, A. G. Heide,
    M. F. Herbst, and D. L. Poole

             Previous Authors, Complete List of Code Contributors,
                       and Citations for Specific Modules
    https://github.com/psi4/psi4/blob/master/codemeta.json
    https://github.com/psi4/psi4/graphs/contributors
    http://psicode.org/psi4manual/master/introduction.html#citing-psifour

    -----------------------------------------------------------------------


    Psi4 started on: Saturday, 01 March 2025 09:44PM

    Process ID: 199582
    Host:       moses-razer
    PSIDATADIR: /home/kchung25/anaconda3/envs/psi4_19/share/psi4
    Memory:     500.0 MiB
    Threads:    1
    
  ==> Input File <==

--------------------------------------------------------------------------
MEMORY 10 GB

molecule dimer {
0 1
C   -1.476290   0.806968   0.922453
C   -1.593018  -0.044148  -0.309222
O   -2.892465  -0.593232  -0.344560
H   -2.991527  -1.109285  -1.146434
H   -0.485127   1.260809   0.970032
H   -1.636387   0.205953   1.820445
H   -2.225971   1.600235   0.910180
H   -0.832252  -0.840551  -0.286052
H   -1.391080   0.562098  -1.203447
--
0 1
C    2.051333  -0.883548   0.822442
C    2.076079  -0.303211  -0.569232
O    1.686626   1.051826  -0.597927
H    2.286373   1.551607  -0.038142
H    2.325956  -1.940376   0.814701
H    1.055170  -0.788364   1.261253
H    2.758319  -0.362787   1.475107
H    1.365709  -0.828707  -1.214075
H    3.068906  -0.435747  -1.022318

units ang
no_reorient
no_com
symmetry c1
}

set {
basis        aug-cc-pVTZ
scf_type     df
}

energy("sapt2+")
--------------------------------------------------------------------------

  Memory set to   9.313 GiB by Python driver.

Scratch directory: /scratch/
   => Loading Basis Set <=

    Name: AUG-CC-PVTZ
    Role: ORBITAL
    Keyword: BASIS
    atoms 1-2, 10-11 entry C          line   239 file /home/kchung25/anaconda3/envs/p415env/share/psi4/basis/aug-cc-pvtz.gbs 
    atoms 3, 12      entry O          line   331 file /home/kchung25/anaconda3/envs/p415env/share/psi4/basis/aug-cc-pvtz.gbs 
    atoms 4-9, 13-18 entry H          line    40 file /home/kchung25/anaconda3/envs/p415env/share/psi4/basis/aug-cc-pvtz.gbs 

   => Loading Basis Set <=

    Name: AUG-CC-PVTZ
    Role: ORBITAL
    Keyword: BASIS
    atoms 1-2, 10-11 entry C          line   239 file /home/kchung25/anaconda3/envs/p415env/share/psi4/basis/aug-cc-pvtz.gbs 
    atoms 3, 12      entry O          line   331 file /home/kchung25/anaconda3/envs/p415env/share/psi4/basis/aug-cc-pvtz.gbs 
    atoms 4-9, 13-18 entry H          line    40 file /home/kchung25/anaconda3/envs/p415env/share/psi4/basis/aug-cc-pvtz.gbs 


  //>>>>>>>>>>>>>>>>>>>>>>>>>>>>>>>>>>>//
  //              Dimer HF             //
  //<<<<<<<<<<<<<<<<<<<<<<<<<<<<<<<<<<<//

   => Libint2 <=

    Primary   basis highest AM E, G, H:  5, 4, 3
    Auxiliary basis highest AM E, G, H:  6, 5, 4
    Onebody   basis highest AM E, G, H:  6, 5, 4
    Solid Harmonics ordering:            gaussian

*** tstart() called on moses-razer
*** at Sat Mar  1 21:44:08 2025

   => Loading Basis Set <=

    Name: AUG-CC-PVTZ
    Role: ORBITAL
    Keyword: BASIS
    atoms 1-2, 10-11 entry C          line   239 file /home/kchung25/anaconda3/envs/p415env/share/psi4/basis/aug-cc-pvtz.gbs 
    atoms 3, 12      entry O          line   331 file /home/kchung25/anaconda3/envs/p415env/share/psi4/basis/aug-cc-pvtz.gbs 
    atoms 4-9, 13-18 entry H          line    40 file /home/kchung25/anaconda3/envs/p415env/share/psi4/basis/aug-cc-pvtz.gbs 


         ---------------------------------------------------------
                                   SCF
               by Justin Turney, Rob Parrish, Andy Simmonett
                          and Daniel G. A. Smith
                              RHF Reference
                        1 Threads,   9536 MiB Core
         ---------------------------------------------------------

  ==> Geometry <==

    Molecular point group: c1
    Full point group: C1

    Geometry (in Angstrom), charge = 0, multiplicity = 1:

       Center              X                  Y                   Z               Mass       
    ------------   -----------------  -----------------  -----------------  -----------------
         C           -1.476290000000     0.806968000000     0.922453000000    12.000000000000
         C           -1.593018000000    -0.044148000000    -0.309222000000    12.000000000000
         O           -2.892465000000    -0.593232000000    -0.344560000000    15.994914619570
         H           -2.991527000000    -1.109285000000    -1.146434000000     1.007825032230
         H           -0.485127000000     1.260809000000     0.970032000000     1.007825032230
         H           -1.636387000000     0.205953000000     1.820445000000     1.007825032230
         H           -2.225971000000     1.600235000000     0.910180000000     1.007825032230
         H           -0.832252000000    -0.840551000000    -0.286052000000     1.007825032230
         H           -1.391080000000     0.562098000000    -1.203447000000     1.007825032230
         C            2.051333000000    -0.883548000000     0.822442000000    12.000000000000
         C            2.076079000000    -0.303211000000    -0.569232000000    12.000000000000
         O            1.686626000000     1.051826000000    -0.597927000000    15.994914619570
         H            2.286373000000     1.551607000000    -0.038142000000     1.007825032230
         H            2.325956000000    -1.940376000000     0.814701000000     1.007825032230
         H            1.055170000000    -0.788364000000     1.261253000000     1.007825032230
         H            2.758319000000    -0.362787000000     1.475107000000     1.007825032230
         H            1.365709000000    -0.828707000000    -1.214075000000     1.007825032230
         H            3.068906000000    -0.435747000000    -1.022318000000     1.007825032230

  Running in c1 symmetry.

  Rotational constants: A =      0.16555  B =      0.03882  C =      0.03788 [cm^-1]
  Rotational constants: A =   4963.05415  B =   1163.67902  C =   1135.52759 [MHz]
  Nuclear repulsion =  251.360375701998151

  Charge       = 0
  Multiplicity = 1
  Electrons    = 52
  Nalpha       = 26
  Nbeta        = 26

  ==> Algorithm <==

  SCF Algorithm Type is DF.
  DIIS enabled.
  MOM disabled.
  Fractional occupation disabled.
  Guess Type is SAD.
  Energy threshold   = 1.00e-08
  Density threshold  = 1.00e-08
  Integral threshold = 1.00e-12

  ==> Primary Basis <==

  Basis Set: AUG-CC-PVTZ
    Blend: AUG-CC-PVTZ
    Number of shells: 192
    Number of basis functions: 552
    Number of Cartesian functions: 630
    Spherical Harmonics?: true
    Max angular momentum: 3

   => Loading Basis Set <=

    Name: (AUG-CC-PVTZ AUX)
    Role: JKFIT
    Keyword: DF_BASIS_SCF
    atoms 1-2, 10-11 entry C          line   162 file /home/kchung25/anaconda3/envs/p415env/share/psi4/basis/aug-cc-pvtz-jkfit.gbs 
    atoms 3, 12      entry O          line   286 file /home/kchung25/anaconda3/envs/p415env/share/psi4/basis/aug-cc-pvtz-jkfit.gbs 
    atoms 4-9, 13-18 entry H          line    70 file /home/kchung25/anaconda3/envs/p415env/share/psi4/basis/aug-cc-pvtz-jkfit.gbs 

  ==> Integral Setup <==

  ==> DiskDFJK: Density-Fitted J/K Matrices <==

    J tasked:                  Yes
    K tasked:                  Yes
    wK tasked:                  No
    OpenMP threads:              1
    Integrals threads:           1
    Memory [MiB]:             7152
    Algorithm:                Core
    Integral Cache:           SAVE
    Schwarz Cutoff:          1E-12
    Fitting Condition:       1E-10

   => Auxiliary Basis Set <=

  Basis Set: (AUG-CC-PVTZ AUX)
    Blend: AUG-CC-PVTZ-JKFIT
    Number of shells: 348
    Number of basis functions: 1176
    Number of Cartesian functions: 1446
    Spherical Harmonics?: true
    Max angular momentum: 4

  Minimum eigenvalue in the overlap matrix is 7.9833414654E-06.
  Reciprocal condition number of the overlap matrix is 4.1945201731E-07.
    Using symmetric orthogonalization.

  ==> Pre-Iterations <==

  SCF Guess: Superposition of Atomic Densities via on-the-fly atomic UHF (no occupation information).

   -------------------------
    Irrep   Nso     Nmo    
   -------------------------
     A        552     552 
   -------------------------
    Total     552     552
   -------------------------

  ==> Iterations <==

                           Total Energy        Delta E     RMS |[F,P]|

   @DF-RHF iter SAD:  -307.05989785203144   -3.07060e+02   0.00000e+00 
   @DF-RHF iter   1:  -308.00267852797009   -9.42781e-01   1.33001e-03 DIIS/ADIIS
   @DF-RHF iter   2:  -308.22694276291173   -2.24264e-01   7.08752e-04 DIIS/ADIIS
   @DF-RHF iter   3:  -308.28484757505447   -5.79048e-02   1.18965e-04 DIIS/ADIIS
   @DF-RHF iter   4:  -308.28803930104101   -3.19173e-03   4.43024e-05 DIIS
   @DF-RHF iter   5:  -308.28838605625049   -3.46755e-04   8.54084e-06 DIIS
   @DF-RHF iter   6:  -308.28840619425449   -2.01380e-05   1.97579e-06 DIIS
   @DF-RHF iter   7:  -308.28840753472940   -1.34047e-06   5.80070e-07 DIIS
   @DF-RHF iter   8:  -308.28840763792203   -1.03193e-07   1.71055e-07 DIIS
   @DF-RHF iter   9:  -308.28840764869693   -1.07749e-08   4.41820e-08 DIIS
   @DF-RHF iter  10:  -308.28840764946483   -7.67898e-10   1.12925e-08 DIIS
   @DF-RHF iter  11:  -308.28840764949888   -3.40492e-11   4.56646e-09 DIIS
  Energy and wave function converged.


  ==> Post-Iterations <==

    Orbital Energies [Eh]
    ---------------------

    Doubly Occupied:                                                      

       1A    -20.561594     2A    -20.548971     3A    -11.278841  
       4A    -11.264462     5A    -11.221808     6A    -11.200257  
       7A     -1.368887     8A     -1.355164     9A     -1.019617  
      10A     -1.005140    11A     -0.853842    12A     -0.823879  
      13A     -0.701040    14A     -0.689886    15A     -0.638627  
      16A     -0.631164    17A     -0.615863    18A     -0.566613  
      19A     -0.550466    20A     -0.532815    21A     -0.522424  
      22A     -0.516116    23A     -0.486467    24A     -0.479644  
      25A     -0.448181    26A     -0.431786  

    Virtual:                                                              

      27A      0.026461    28A      0.032586    29A      0.038187  
      30A      0.038503    31A      0.051656    32A      0.056606  
      33A      0.057148    34A      0.060153    35A      0.064081  
      36A      0.077890    37A      0.084579    38A      0.092176  
      39A      0.110816    40A      0.115471    41A      0.118633  
      42A      0.121180    43A      0.125592    44A      0.132846  
      45A      0.139284    46A      0.149681    47A      0.154922  
      48A      0.158376    49A      0.163845    50A      0.166062  
      51A      0.170154    52A      0.176185    53A      0.185087  
      54A      0.186655    55A      0.192391    56A      0.207917  
      57A      0.212440    58A      0.222290    59A      0.233708  
      60A      0.246198    61A      0.247834    62A      0.251978  
      63A      0.268788    64A      0.275423    65A      0.282013  
      66A      0.283781    67A      0.294179    68A      0.296462  
      69A      0.303910    70A      0.307272    71A      0.311162  
      72A      0.321464    73A      0.330326    74A      0.334761  
      75A      0.336446    76A      0.343972    77A      0.348012  
      78A      0.356971    79A      0.360147    80A      0.366958  
      81A      0.369780    82A      0.376019    83A      0.380893  
      84A      0.385938    85A      0.389977    86A      0.396044  
      87A      0.399075    88A      0.407893    89A      0.411002  
      90A      0.417723    91A      0.426067    92A      0.432846  
      93A      0.439880    94A      0.443526    95A      0.447902  
      96A      0.451185    97A      0.456724    98A      0.460672  
      99A      0.467150   100A      0.472322   101A      0.477048  
     102A      0.480797   103A      0.481585   104A      0.490758  
     105A      0.499925   106A      0.502731   107A      0.506691  
     108A      0.512769   109A      0.517199   110A      0.520358  
     111A      0.529029   112A      0.539845   113A      0.545675  
     114A      0.546592   115A      0.559459   116A      0.561896  
     117A      0.570454   118A      0.576953   119A      0.581608  
     120A      0.584463   121A      0.595850   122A      0.601903  
     123A      0.614576   124A      0.618523   125A      0.628392  
     126A      0.643631   127A      0.646536   128A      0.653626  
     129A      0.661418   130A      0.666383   131A      0.679266  
     132A      0.693805   133A      0.706663   134A      0.713361  
     135A      0.740230   136A      0.745199   137A      0.754188  
     138A      0.768259   139A      0.776279   140A      0.784551  
     141A      0.796716   142A      0.803968   143A      0.815340  
     144A      0.824617   145A      0.827319   146A      0.834835  
     147A      0.842035   148A      0.855930   149A      0.859275  
     150A      0.863564   151A      0.870737   152A      0.878537  
     153A      0.886871   154A      0.893491   155A      0.903420  
     156A      0.911779   157A      0.915795   158A      0.921635  
     159A      0.927915   160A      0.934639   161A      0.939610  
     162A      0.944176   163A      0.952873   164A      0.956385  
     165A      0.967169   166A      0.972377   167A      0.976265  
     168A      0.990426   169A      1.001651   170A      1.005687  
     171A      1.010888   172A      1.021025   173A      1.029546  
     174A      1.032968   175A      1.038992   176A      1.047399  
     177A      1.050830   178A      1.052378   179A      1.060263  
     180A      1.066561   181A      1.080504   182A      1.088122  
     183A      1.095250   184A      1.098099   185A      1.102888  
     186A      1.119503   187A      1.122737   188A      1.129630  
     189A      1.134016   190A      1.146400   191A      1.149138  
     192A      1.155478   193A      1.157294   194A      1.166261  
     195A      1.175140   196A      1.184408   197A      1.186707  
     198A      1.192698   199A      1.207370   200A      1.214141  
     201A      1.221313   202A      1.231949   203A      1.242755  
     204A      1.245521   205A      1.259372   206A      1.264414  
     207A      1.271401   208A      1.287143   209A      1.290426  
     210A      1.310721   211A      1.320678   212A      1.322622  
     213A      1.327261   214A      1.333500   215A      1.344522  
     216A      1.349964   217A      1.357073   218A      1.371161  
     219A      1.380652   220A      1.384445   221A      1.405204  
     222A      1.414773   223A      1.423276   224A      1.426030  
     225A      1.434593   226A      1.447616   227A      1.459119  
     228A      1.467592   229A      1.481171   230A      1.483666  
     231A      1.494744   232A      1.505963   233A      1.516159  
     234A      1.523220   235A      1.538254   236A      1.561366  
     237A      1.573068   238A      1.580479   239A      1.586999  
     240A      1.594505   241A      1.608973   242A      1.617515  
     243A      1.628597   244A      1.643677   245A      1.649330  
     246A      1.659243   247A      1.674430   248A      1.675903  
     249A      1.686711   250A      1.701822   251A      1.705682  
     252A      1.710240   253A      1.719835   254A      1.732713  
     255A      1.739983   256A      1.742311   257A      1.750505  
     258A      1.755927   259A      1.767101   260A      1.774834  
     261A      1.785307   262A      1.803985   263A      1.804697  
     264A      1.812846   265A      1.815527   266A      1.824035  
     267A      1.836912   268A      1.855997   269A      1.863041  
     270A      1.879892   271A      1.884419   272A      1.902474  
     273A      1.907782   274A      1.911203   275A      1.927288  
     276A      1.937678   277A      1.947705   278A      1.964478  
     279A      1.970943   280A      1.981374   281A      1.995109  
     282A      2.003097   283A      2.009432   284A      2.032109  
     285A      2.036688   286A      2.068059   287A      2.076454  
     288A      2.087000   289A      2.096852   290A      2.103918  
     291A      2.113103   292A      2.135449   293A      2.139227  
     294A      2.157739   295A      2.172010   296A      2.186913  
     297A      2.197947   298A      2.204505   299A      2.210862  
     300A      2.222349   301A      2.242507   302A      2.267296  
     303A      2.274628   304A      2.290056   305A      2.300786  
     306A      2.322874   307A      2.335407   308A      2.358088  
     309A      2.362345   310A      2.378683   311A      2.400099  
     312A      2.404340   313A      2.418693   314A      2.450283  
     315A      2.485919   316A      2.491649   317A      2.504091  
     318A      2.509469   319A      2.553203   320A      2.562376  
     321A      2.610817   322A      2.622250   323A      2.629505  
     324A      2.669535   325A      2.698252   326A      2.723144  
     327A      2.763564   328A      2.778524   329A      2.828012  
     330A      2.863349   331A      2.877233   332A      2.887515  
     333A      2.911394   334A      2.929129   335A      2.949981  
     336A      2.960197   337A      2.982830   338A      3.001610  
     339A      3.025154   340A      3.030536   341A      3.046927  
     342A      3.066492   343A      3.083422   344A      3.132022  
     345A      3.150006   346A      3.169627   347A      3.219445  
     348A      3.278311   349A      3.294055   350A      3.350201  
     351A      3.375711   352A      3.424328   353A      3.441452  
     354A      3.476211   355A      3.486902   356A      3.502870  
     357A      3.517458   358A      3.529702   359A      3.555819  
     360A      3.568116   361A      3.611757   362A      3.616331  
     363A      3.624000   364A      3.655522   365A      3.670884  
     366A      3.682812   367A      3.690822   368A      3.706396  
     369A      3.721039   370A      3.728548   371A      3.751718  
     372A      3.763171   373A      3.778737   374A      3.781735  
     375A      3.805585   376A      3.819971   377A      3.822312  
     378A      3.838879   379A      3.851664   380A      3.862755  
     381A      3.873771   382A      3.905778   383A      3.913017  
     384A      3.932864   385A      3.943195   386A      3.972158  
     387A      3.978248   388A      3.982347   389A      4.001397  
     390A      4.013076   391A      4.024747   392A      4.031215  
     393A      4.043380   394A      4.061368   395A      4.064221  
     396A      4.092122   397A      4.098390   398A      4.105735  
     399A      4.130190   400A      4.142015   401A      4.150521  
     402A      4.155227   403A      4.176202   404A      4.183534  
     405A      4.200630   406A      4.204606   407A      4.218987  
     408A      4.238013   409A      4.256984   410A      4.270822  
     411A      4.281286   412A      4.310824   413A      4.336092  
     414A      4.344652   415A      4.357037   416A      4.359507  
     417A      4.376809   418A      4.407486   419A      4.415607  
     420A      4.418039   421A      4.488434   422A      4.505573  
     423A      4.521886   424A      4.552386   425A      4.575164  
     426A      4.581849   427A      4.588997   428A      4.599058  
     429A      4.610312   430A      4.620095   431A      4.641964  
     432A      4.654784   433A      4.666642   434A      4.677020  
     435A      4.698494   436A      4.710242   437A      4.733870  
     438A      4.758279   439A      4.771449   440A      4.793894  
     441A      4.826887   442A      4.854154   443A      4.864763  
     444A      4.879508   445A      4.887576   446A      4.909214  
     447A      4.915083   448A      4.924510   449A      4.934816  
     450A      4.952461   451A      4.958067   452A      4.981119  
     453A      5.005272   454A      5.023857   455A      5.025738  
     456A      5.059214   457A      5.068563   458A      5.085956  
     459A      5.098485   460A      5.108885   461A      5.132839  
     462A      5.150357   463A      5.171743   464A      5.188302  
     465A      5.192058   466A      5.216267   467A      5.228802  
     468A      5.230902   469A      5.262186   470A      5.297079  
     471A      5.311935   472A      5.367584   473A      5.379892  
     474A      5.388383   475A      5.392848   476A      5.408136  
     477A      5.431280   478A      5.450240   479A      5.488765  
     480A      5.498269   481A      5.518481   482A      5.537052  
     483A      5.564698   484A      5.571103   485A      5.600645  
     486A      5.603712   487A      5.634307   488A      5.642601  
     489A      5.653003   490A      5.686265   491A      5.687566  
     492A      5.727160   493A      5.783397   494A      5.787565  
     495A      5.808846   496A      5.853402   497A      5.862835  
     498A      5.883265   499A      6.013814   500A      6.038395  
     501A      6.069879   502A      6.098916   503A      6.126870  
     504A      6.127669   505A      6.182285   506A      6.202426  
     507A      6.237174   508A      6.249911   509A      6.260557  
     510A      6.300367   511A      6.315055   512A      6.317460  
     513A      6.425142   514A      6.484334   515A      6.713845  
     516A      6.716454   517A      6.745117   518A      6.805438  
     519A      6.822764   520A      6.844980   521A      6.882070  
     522A      6.906455   523A      6.947565   524A      6.956994  
     525A      7.000652   526A      7.010544   527A      7.143526  
     528A      7.198796   529A      7.369731   530A      7.375923  
     531A      7.381609   532A      7.415379   533A      7.515924  
     534A      7.534949   535A      7.542335   536A      7.558204  
     537A      7.635661   538A      7.656311   539A      7.861775  
     540A      7.886050   541A      7.932160   542A      7.981407  
     543A      8.267248   544A      8.271834   545A      8.640695  
     546A      8.652120   547A     16.057646   548A     16.565124  
     549A     17.790904   550A     18.224521   551A     18.663724  
     552A     18.827267  

    Final Occupation by Irrep:
              A 
    DOCC [    26 ]
    NA   [    26 ]
    NB   [    26 ]

  @DF-RHF Final Energy:  -308.28840764949888

   => Energetics <=

    Nuclear Repulsion Energy =            251.3603757019981515
    One-Electron Energy =                -918.6704527357082952
    Two-Electron Energy =                 359.0216693842112932
    Total Energy =                       -308.2884076494988790

Computation Completed


Properties will be evaluated at   0.000000,   0.000000,   0.000000 [a0]

Properties computed using the SCF density matrix


 Multipole Moments:

 ------------------------------------------------------------------------------------
     Multipole            Electronic (a.u.)      Nuclear  (a.u.)        Total (a.u.)
 ------------------------------------------------------------------------------------

 L = 1.  Multiply by 2.5417464519 to convert [e a0] to [Debye]
 Dipole X            :          1.0720062            0.0000019            1.0720081
 Dipole Y            :         -0.3271374            0.0000057           -0.3271318
 Dipole Z            :         -0.1020919            0.0000000           -0.1020919
 Magnitude           :                                                    1.1254508

 ------------------------------------------------------------------------------------

*** tstop() called on moses-razer at Sat Mar  1 21:46:28 2025
Module time:
	user time   =     136.93 seconds =       2.28 minutes
	system time =       3.38 seconds =       0.06 minutes
	total time  =        140 seconds =       2.33 minutes
Total time:
	user time   =     136.93 seconds =       2.28 minutes
	system time =       3.38 seconds =       0.06 minutes
	total time  =        140 seconds =       2.33 minutes

  //>>>>>>>>>>>>>>>>>>>>>>>>>>>>>>>>>>>//
  //            Monomer A HF           //
  //<<<<<<<<<<<<<<<<<<<<<<<<<<<<<<<<<<<//

   => Libint2 <=

    Primary   basis highest AM E, G, H:  5, 4, 3
    Auxiliary basis highest AM E, G, H:  6, 5, 4
    Onebody   basis highest AM E, G, H:  6, 5, 4
    Solid Harmonics ordering:            gaussian

*** tstart() called on moses-razer
*** at Sat Mar  1 21:46:28 2025

   => Loading Basis Set <=

    Name: AUG-CC-PVTZ
    Role: ORBITAL
    Keyword: BASIS
    atoms 1-2, 10-11 entry C          line   239 file /home/kchung25/anaconda3/envs/p415env/share/psi4/basis/aug-cc-pvtz.gbs 
    atoms 3, 12      entry O          line   331 file /home/kchung25/anaconda3/envs/p415env/share/psi4/basis/aug-cc-pvtz.gbs 
    atoms 4-9, 13-18 entry H          line    40 file /home/kchung25/anaconda3/envs/p415env/share/psi4/basis/aug-cc-pvtz.gbs 


         ---------------------------------------------------------
                                   SCF
               by Justin Turney, Rob Parrish, Andy Simmonett
                          and Daniel G. A. Smith
                              RHF Reference
                        1 Threads,   9536 MiB Core
         ---------------------------------------------------------

  ==> Geometry <==

    Molecular point group: c1
    Full point group: C1

    Geometry (in Angstrom), charge = 0, multiplicity = 1:

       Center              X                  Y                   Z               Mass       
    ------------   -----------------  -----------------  -----------------  -----------------
         C           -1.476290000000     0.806968000000     0.922453000000    12.000000000000
         C           -1.593018000000    -0.044148000000    -0.309222000000    12.000000000000
         O           -2.892465000000    -0.593232000000    -0.344560000000    15.994914619570
         H           -2.991527000000    -1.109285000000    -1.146434000000     1.007825032230
         H           -0.485127000000     1.260809000000     0.970032000000     1.007825032230
         H           -1.636387000000     0.205953000000     1.820445000000     1.007825032230
         H           -2.225971000000     1.600235000000     0.910180000000     1.007825032230
         H           -0.832252000000    -0.840551000000    -0.286052000000     1.007825032230
         H           -1.391080000000     0.562098000000    -1.203447000000     1.007825032230
      Gh(C)           2.051333000000    -0.883548000000     0.822442000000    12.000000000000
      Gh(C)           2.076079000000    -0.303211000000    -0.569232000000    12.000000000000
      Gh(O)           1.686626000000     1.051826000000    -0.597927000000    15.994914619570
      Gh(H)           2.286373000000     1.551607000000    -0.038142000000     1.007825032230
      Gh(H)           2.325956000000    -1.940376000000     0.814701000000     1.007825032230
      Gh(H)           1.055170000000    -0.788364000000     1.261253000000     1.007825032230
      Gh(H)           2.758319000000    -0.362787000000     1.475107000000     1.007825032230
      Gh(H)           1.365709000000    -0.828707000000    -1.214075000000     1.007825032230
      Gh(H)           3.068906000000    -0.435747000000    -1.022318000000     1.007825032230

  Running in c1 symmetry.

  Rotational constants: A =      0.16555  B =      0.03882  C =      0.03788 [cm^-1]
  Rotational constants: A =   4963.05415  B =   1163.67902  C =   1135.52759 [MHz]
  Nuclear repulsion =   82.261881393900055

  Charge       = 0
  Multiplicity = 1
  Electrons    = 26
  Nalpha       = 13
  Nbeta        = 13

  ==> Algorithm <==

  SCF Algorithm Type is DF.
  DIIS enabled.
  MOM disabled.
  Fractional occupation disabled.
  Guess Type is SAD.
  Energy threshold   = 1.00e-08
  Density threshold  = 1.00e-08
  Integral threshold = 1.00e-12

  ==> Primary Basis <==

  Basis Set: AUG-CC-PVTZ
    Blend: AUG-CC-PVTZ
    Number of shells: 192
    Number of basis functions: 552
    Number of Cartesian functions: 630
    Spherical Harmonics?: true
    Max angular momentum: 3

   => Loading Basis Set <=

    Name: (AUG-CC-PVTZ AUX)
    Role: JKFIT
    Keyword: DF_BASIS_SCF
    atoms 1-2, 10-11 entry C          line   162 file /home/kchung25/anaconda3/envs/p415env/share/psi4/basis/aug-cc-pvtz-jkfit.gbs 
    atoms 3, 12      entry O          line   286 file /home/kchung25/anaconda3/envs/p415env/share/psi4/basis/aug-cc-pvtz-jkfit.gbs 
    atoms 4-9, 13-18 entry H          line    70 file /home/kchung25/anaconda3/envs/p415env/share/psi4/basis/aug-cc-pvtz-jkfit.gbs 

  ==> Integral Setup <==

  ==> DiskDFJK: Density-Fitted J/K Matrices <==

    J tasked:                  Yes
    K tasked:                  Yes
    wK tasked:                  No
    OpenMP threads:              1
    Integrals threads:           1
    Memory [MiB]:             7152
    Algorithm:                Core
    Integral Cache:           LOAD
    Schwarz Cutoff:          1E-12
    Fitting Condition:       1E-10

   => Auxiliary Basis Set <=

  Basis Set: (AUG-CC-PVTZ AUX)
    Blend: AUG-CC-PVTZ-JKFIT
    Number of shells: 348
    Number of basis functions: 1176
    Number of Cartesian functions: 1446
    Spherical Harmonics?: true
    Max angular momentum: 4

  Minimum eigenvalue in the overlap matrix is 7.9833414654E-06.
  Reciprocal condition number of the overlap matrix is 4.1945201731E-07.
    Using symmetric orthogonalization.

  ==> Pre-Iterations <==

  SCF Guess: Superposition of Atomic Densities via on-the-fly atomic UHF (no occupation information).

   -------------------------
    Irrep   Nso     Nmo    
   -------------------------
     A        552     552 
   -------------------------
    Total     552     552
   -------------------------

  ==> Iterations <==

                           Total Energy        Delta E     RMS |[F,P]|

   @DF-RHF iter SAD:  -153.45223762339339   -1.53452e+02   0.00000e+00 
   @DF-RHF iter   1:  -153.99860679847390   -5.46369e-01   9.60874e-04 DIIS/ADIIS
   @DF-RHF iter   2:  -154.11083721026358   -1.12230e-01   5.34312e-04 DIIS/ADIIS
   @DF-RHF iter   3:  -154.14377571718609   -3.29385e-02   8.44203e-05 DIIS
   @DF-RHF iter   4:  -154.14537211158262   -1.59639e-03   3.23574e-05 DIIS
   @DF-RHF iter   5:  -154.14555609376683   -1.83982e-04   5.75937e-06 DIIS
   @DF-RHF iter   6:  -154.14556567319744   -9.57943e-06   1.27569e-06 DIIS
   @DF-RHF iter   7:  -154.14556622736740   -5.54170e-07   3.91784e-07 DIIS
   @DF-RHF iter   8:  -154.14556627103943   -4.36720e-08   1.04847e-07 DIIS
   @DF-RHF iter   9:  -154.14556627520642   -4.16699e-09   2.52066e-08 DIIS
   @DF-RHF iter  10:  -154.14556627546716   -2.60741e-10   4.78551e-09 DIIS
  Energy and wave function converged.


  ==> Post-Iterations <==

    Orbital Energies [Eh]
    ---------------------

    Doubly Occupied:                                                      

       1A    -20.556038     2A    -11.273626     3A    -11.210844  
       4A     -1.362170     5A     -1.014644     6A     -0.832590  
       7A     -0.703847     8A     -0.645271     9A     -0.574702  
      10A     -0.533933    11A     -0.524215    12A     -0.489069  
      13A     -0.439818  

    Virtual:                                                              

      14A      0.020380    15A      0.032299    16A      0.035487  
      17A      0.037116    18A      0.051582    19A      0.054231  
      20A      0.055891    21A      0.058675    22A      0.063420  
      23A      0.078904    24A      0.080936    25A      0.088349  
      26A      0.094170    27A      0.104205    28A      0.112580  
      29A      0.115356    30A      0.119404    31A      0.124354  
      32A      0.130556    33A      0.139074    34A      0.148906  
      35A      0.150422    36A      0.161157    37A      0.161527  
      38A      0.164995    39A      0.169544    40A      0.174818  
      41A      0.182604    42A      0.188604    43A      0.208018  
      44A      0.211699    45A      0.213582    46A      0.221686  
      47A      0.232379    48A      0.238091    49A      0.246378  
      50A      0.256159    51A      0.266279    52A      0.272871  
      53A      0.276645    54A      0.290032    55A      0.294253  
      56A      0.300057    57A      0.304888    58A      0.310462  
      59A      0.318409    60A      0.323817    61A      0.332306  
      62A      0.340195    63A      0.342039    64A      0.342501  
      65A      0.349375    66A      0.354740    67A      0.358656  
      68A      0.359356    69A      0.366338    70A      0.375825  
      71A      0.378173    72A      0.383729    73A      0.391211  
      74A      0.398589    75A      0.403603    76A      0.409082  
      77A      0.412391    78A      0.418526    79A      0.424827  
      80A      0.436893    81A      0.441291    82A      0.444692  
      83A      0.446774    84A      0.456525    85A      0.462240  
      86A      0.465510    87A      0.471237    88A      0.474956  
      89A      0.480912    90A      0.488465    91A      0.491780  
      92A      0.500955    93A      0.507149    94A      0.510431  
      95A      0.514217    96A      0.526953    97A      0.528086  
      98A      0.540982    99A      0.543982   100A      0.556235  
     101A      0.558655   102A      0.563633   103A      0.569889  
     104A      0.584884   105A      0.587433   106A      0.594112  
     107A      0.607203   108A      0.609788   109A      0.616317  
     110A      0.622194   111A      0.631378   112A      0.639409  
     113A      0.642096   114A      0.655482   115A      0.666395  
     116A      0.668852   117A      0.676003   118A      0.681782  
     119A      0.690211   120A      0.698642   121A      0.707665  
     122A      0.724049   123A      0.730550   124A      0.737395  
     125A      0.754017   126A      0.761311   127A      0.778402  
     128A      0.781404   129A      0.788558   130A      0.807066  
     131A      0.812510   132A      0.819013   133A      0.841643  
     134A      0.847873   135A      0.858247   136A      0.867279  
     137A      0.882482   138A      0.884638   139A      0.896220  
     140A      0.904496   141A      0.907412   142A      0.913541  
     143A      0.917605   144A      0.931567   145A      0.934506  
     146A      0.943478   147A      0.950482   148A      0.967167  
     149A      0.973523   150A      0.976866   151A      0.982296  
     152A      0.994349   153A      1.004621   154A      1.013485  
     155A      1.019899   156A      1.025017   157A      1.033948  
     158A      1.044298   159A      1.047188   160A      1.049186  
     161A      1.052319   162A      1.067610   163A      1.072303  
     164A      1.081551   165A      1.085772   166A      1.087322  
     167A      1.093305   168A      1.099452   169A      1.108585  
     170A      1.118125   171A      1.126609   172A      1.136354  
     173A      1.139724   174A      1.145865   175A      1.151002  
     176A      1.163465   177A      1.167868   178A      1.173318  
     179A      1.180849   180A      1.185368   181A      1.190169  
     182A      1.192829   183A      1.198236   184A      1.212158  
     185A      1.221174   186A      1.224699   187A      1.235905  
     188A      1.242734   189A      1.254111   190A      1.254721  
     191A      1.260907   192A      1.272439   193A      1.282397  
     194A      1.295422   195A      1.307444   196A      1.320931  
     197A      1.321984   198A      1.339175   199A      1.340243  
     200A      1.349685   201A      1.357922   202A      1.359725  
     203A      1.368170   204A      1.373681   205A      1.381554  
     206A      1.394983   207A      1.409738   208A      1.412318  
     209A      1.427414   210A      1.433026   211A      1.442893  
     212A      1.447249   213A      1.463749   214A      1.470673  
     215A      1.477540   216A      1.483586   217A      1.499177  
     218A      1.508222   219A      1.522728   220A      1.528706  
     221A      1.542731   222A      1.544297   223A      1.549489  
     224A      1.574053   225A      1.582588   226A      1.587365  
     227A      1.594599   228A      1.607279   229A      1.615867  
     230A      1.619332   231A      1.640505   232A      1.654584  
     233A      1.670567   234A      1.680848   235A      1.684541  
     236A      1.699593   237A      1.701337   238A      1.716499  
     239A      1.718866   240A      1.734606   241A      1.740208  
     242A      1.760186   243A      1.765518   244A      1.770857  
     245A      1.786283   246A      1.793710   247A      1.799045  
     248A      1.814650   249A      1.821570   250A      1.827857  
     251A      1.837351   252A      1.852352   253A      1.858684  
     254A      1.870873   255A      1.882176   256A      1.900194  
     257A      1.917458   258A      1.929743   259A      1.933530  
     260A      1.967285   261A      1.969745   262A      1.985877  
     263A      1.992576   264A      2.006083   265A      2.013228  
     266A      2.024557   267A      2.037620   268A      2.045172  
     269A      2.056805   270A      2.075255   271A      2.082680  
     272A      2.090087   273A      2.107649   274A      2.120047  
     275A      2.138380   276A      2.147223   277A      2.155334  
     278A      2.163900   279A      2.177237   280A      2.182841  
     281A      2.190397   282A      2.211757   283A      2.221962  
     284A      2.234975   285A      2.242638   286A      2.263456  
     287A      2.268774   288A      2.270456   289A      2.298110  
     290A      2.309468   291A      2.318216   292A      2.329754  
     293A      2.342646   294A      2.373685   295A      2.380696  
     296A      2.406720   297A      2.436128   298A      2.455437  
     299A      2.463634   300A      2.495397   301A      2.501736  
     302A      2.532594   303A      2.547006   304A      2.551890  
     305A      2.573988   306A      2.585420   307A      2.600215  
     308A      2.617550   309A      2.642316   310A      2.660156  
     311A      2.695658   312A      2.708087   313A      2.721248  
     314A      2.755479   315A      2.775386   316A      2.803474  
     317A      2.823520   318A      2.852433   319A      2.854272  
     320A      2.873373   321A      2.912690   322A      2.928092  
     323A      2.938716   324A      2.963588   325A      2.979859  
     326A      2.988925   327A      3.000274   328A      3.013670  
     329A      3.061962   330A      3.115567   331A      3.134635  
     332A      3.143326   333A      3.162994   334A      3.178025  
     335A      3.235864   336A      3.264953   337A      3.318179  
     338A      3.332211   339A      3.354782   340A      3.383206  
     341A      3.434339   342A      3.482495   343A      3.492127  
     344A      3.510881   345A      3.523182   346A      3.544866  
     347A      3.562481   348A      3.616044   349A      3.626819  
     350A      3.640826   351A      3.655652   352A      3.662418  
     353A      3.711331   354A      3.721854   355A      3.751369  
     356A      3.774603   357A      3.818604   358A      3.832086  
     359A      3.853126   360A      3.877664   361A      3.891600  
     362A      3.903147   363A      3.937891   364A      3.968930  
     365A      3.983038   366A      3.997434   367A      4.012520  
     368A      4.020127   369A      4.054266   370A      4.085928  
     371A      4.103876   372A      4.119903   373A      4.131396  
     374A      4.140611   375A      4.152016   376A      4.157054  
     377A      4.179578   378A      4.183203   379A      4.211391  
     380A      4.225570   381A      4.238208   382A      4.238855  
     383A      4.261489   384A      4.287515   385A      4.307697  
     386A      4.325659   387A      4.334845   388A      4.346603  
     389A      4.365833   390A      4.383448   391A      4.399836  
     392A      4.412039   393A      4.448067   394A      4.468955  
     395A      4.509599   396A      4.513798   397A      4.518508  
     398A      4.539638   399A      4.557370   400A      4.568854  
     401A      4.590958   402A      4.593693   403A      4.608729  
     404A      4.616317   405A      4.637445   406A      4.649719  
     407A      4.664643   408A      4.671197   409A      4.693508  
     410A      4.713068   411A      4.726641   412A      4.731023  
     413A      4.747350   414A      4.770448   415A      4.799616  
     416A      4.808601   417A      4.820066   418A      4.851885  
     419A      4.859276   420A      4.868373   421A      4.892692  
     422A      4.916940   423A      4.918861   424A      4.936055  
     425A      4.943348   426A      4.955659   427A      4.986057  
     428A      5.012491   429A      5.027830   430A      5.041326  
     431A      5.060195   432A      5.062208   433A      5.074234  
     434A      5.085842   435A      5.111407   436A      5.139649  
     437A      5.147921   438A      5.175612   439A      5.192037  
     440A      5.205111   441A      5.213975   442A      5.239505  
     443A      5.253291   444A      5.276278   445A      5.293747  
     446A      5.350254   447A      5.367885   448A      5.369630  
     449A      5.384640   450A      5.395604   451A      5.407516  
     452A      5.409933   453A      5.438223   454A      5.449431  
     455A      5.482600   456A      5.508092   457A      5.533784  
     458A      5.552572   459A      5.567291   460A      5.579311  
     461A      5.580293   462A      5.595432   463A      5.605194  
     464A      5.624290   465A      5.652091   466A      5.669364  
     467A      5.680609   468A      5.703883   469A      5.751824  
     470A      5.759356   471A      5.771848   472A      5.775215  
     473A      5.786841   474A      5.827193   475A      5.863491  
     476A      5.878832   477A      5.903228   478A      5.985316  
     479A      6.008380   480A      6.038112   481A      6.060769  
     482A      6.089867   483A      6.117737   484A      6.136982  
     485A      6.173153   486A      6.194459   487A      6.211717  
     488A      6.218910   489A      6.242441   490A      6.294330  
     491A      6.305805   492A      6.370269   493A      6.452156  
     494A      6.478458   495A      6.531877   496A      6.712027  
     497A      6.739278   498A      6.781541   499A      6.830399  
     500A      6.865313   501A      6.899335   502A      6.939211  
     503A      6.950133   504A      6.976722   505A      7.029651  
     506A      7.095451   507A      7.116888   508A      7.160614  
     509A      7.194987   510A      7.356566   511A      7.369374  
     512A      7.381873   513A      7.523496   514A      7.546143  
     515A      7.626017   516A      7.771855   517A      7.815948  
     518A      7.852993   519A      7.855493   520A      7.864498  
     521A      7.906645   522A      7.938668   523A      7.970867  
     524A      8.019511   525A      8.137148   526A      8.205567  
     527A      8.258821   528A      8.289327   529A      8.298067  
     530A      8.367454   531A      8.416861   532A      8.588780  
     533A      8.647254   534A      8.926329   535A      9.011161  
     536A     10.030466   537A     10.118263   538A     10.236651  
     539A     10.393076   540A     10.693377   541A     10.729741  
     542A     11.054729   543A     12.065399   544A     12.514736  
     545A     13.307238   546A     14.127651   547A     16.060470  
     548A     18.218574   549A     18.724940   550A     52.877947  
     551A     54.555194   552A     67.350034  

    Final Occupation by Irrep:
              A 
    DOCC [    13 ]
    NA   [    13 ]
    NB   [    13 ]

  @DF-RHF Final Energy:  -154.14556627546716

   => Energetics <=

    Nuclear Repulsion Energy =             82.2618813939000546
    One-Electron Energy =                -372.4933565493528818
    Two-Electron Energy =                 136.0859088799856522
    Total Energy =                       -154.1455662754671607

Computation Completed


Properties will be evaluated at   0.000000,   0.000000,   0.000000 [a0]

Properties computed using the SCF density matrix


 Multipole Moments:

 ------------------------------------------------------------------------------------
     Multipole            Electronic (a.u.)      Nuclear  (a.u.)        Total (a.u.)
 ------------------------------------------------------------------------------------

 L = 1.  Multiply by 2.5417464519 to convert [e a0] to [Debye]
 Dipole X            :         97.0684480          -96.5988538            0.4695943
 Dipole Y            :         -2.9284697            2.8540968           -0.0743729
 Dipole Z            :         -4.2122570            3.7560763           -0.4561806
 Magnitude           :                                                    0.6589012

 ------------------------------------------------------------------------------------

*** tstop() called on moses-razer at Sat Mar  1 21:48:04 2025
Module time:
	user time   =      94.77 seconds =       1.58 minutes
	system time =       1.40 seconds =       0.02 minutes
	total time  =         96 seconds =       1.60 minutes
Total time:
	user time   =     231.70 seconds =       3.86 minutes
	system time =       4.78 seconds =       0.08 minutes
	total time  =        236 seconds =       3.93 minutes

  //>>>>>>>>>>>>>>>>>>>>>>>>>>>>>>>>>>>//
  //            Monomer B HF           //
  //<<<<<<<<<<<<<<<<<<<<<<<<<<<<<<<<<<<//

   => Libint2 <=

    Primary   basis highest AM E, G, H:  5, 4, 3
    Auxiliary basis highest AM E, G, H:  6, 5, 4
    Onebody   basis highest AM E, G, H:  6, 5, 4
    Solid Harmonics ordering:            gaussian

*** tstart() called on moses-razer
*** at Sat Mar  1 21:48:04 2025

   => Loading Basis Set <=

    Name: AUG-CC-PVTZ
    Role: ORBITAL
    Keyword: BASIS
    atoms 1-2, 10-11 entry C          line   239 file /home/kchung25/anaconda3/envs/p415env/share/psi4/basis/aug-cc-pvtz.gbs 
    atoms 3, 12      entry O          line   331 file /home/kchung25/anaconda3/envs/p415env/share/psi4/basis/aug-cc-pvtz.gbs 
    atoms 4-9, 13-18 entry H          line    40 file /home/kchung25/anaconda3/envs/p415env/share/psi4/basis/aug-cc-pvtz.gbs 


         ---------------------------------------------------------
                                   SCF
               by Justin Turney, Rob Parrish, Andy Simmonett
                          and Daniel G. A. Smith
                              RHF Reference
                        1 Threads,   9536 MiB Core
         ---------------------------------------------------------

  ==> Geometry <==

    Molecular point group: c1
    Full point group: C1

    Geometry (in Angstrom), charge = 0, multiplicity = 1:

       Center              X                  Y                   Z               Mass       
    ------------   -----------------  -----------------  -----------------  -----------------
      Gh(C)          -1.476290000000     0.806968000000     0.922453000000    12.000000000000
      Gh(C)          -1.593018000000    -0.044148000000    -0.309222000000    12.000000000000
      Gh(O)          -2.892465000000    -0.593232000000    -0.344560000000    15.994914619570
      Gh(H)          -2.991527000000    -1.109285000000    -1.146434000000     1.007825032230
      Gh(H)          -0.485127000000     1.260809000000     0.970032000000     1.007825032230
      Gh(H)          -1.636387000000     0.205953000000     1.820445000000     1.007825032230
      Gh(H)          -2.225971000000     1.600235000000     0.910180000000     1.007825032230
      Gh(H)          -0.832252000000    -0.840551000000    -0.286052000000     1.007825032230
      Gh(H)          -1.391080000000     0.562098000000    -1.203447000000     1.007825032230
         C            2.051333000000    -0.883548000000     0.822442000000    12.000000000000
         C            2.076079000000    -0.303211000000    -0.569232000000    12.000000000000
         O            1.686626000000     1.051826000000    -0.597927000000    15.994914619570
         H            2.286373000000     1.551607000000    -0.038142000000     1.007825032230
         H            2.325956000000    -1.940376000000     0.814701000000     1.007825032230
         H            1.055170000000    -0.788364000000     1.261253000000     1.007825032230
         H            2.758319000000    -0.362787000000     1.475107000000     1.007825032230
         H            1.365709000000    -0.828707000000    -1.214075000000     1.007825032230
         H            3.068906000000    -0.435747000000    -1.022318000000     1.007825032230

  Running in c1 symmetry.

  Rotational constants: A =      0.16555  B =      0.03882  C =      0.03788 [cm^-1]
  Rotational constants: A =   4963.05415  B =   1163.67902  C =   1135.52759 [MHz]
  Nuclear repulsion =   82.125949324996569

  Charge       = 0
  Multiplicity = 1
  Electrons    = 26
  Nalpha       = 13
  Nbeta        = 13

  ==> Algorithm <==

  SCF Algorithm Type is DF.
  DIIS enabled.
  MOM disabled.
  Fractional occupation disabled.
  Guess Type is SAD.
  Energy threshold   = 1.00e-08
  Density threshold  = 1.00e-08
  Integral threshold = 1.00e-12

  ==> Primary Basis <==

  Basis Set: AUG-CC-PVTZ
    Blend: AUG-CC-PVTZ
    Number of shells: 192
    Number of basis functions: 552
    Number of Cartesian functions: 630
    Spherical Harmonics?: true
    Max angular momentum: 3

   => Loading Basis Set <=

    Name: (AUG-CC-PVTZ AUX)
    Role: JKFIT
    Keyword: DF_BASIS_SCF
    atoms 1-2, 10-11 entry C          line   162 file /home/kchung25/anaconda3/envs/p415env/share/psi4/basis/aug-cc-pvtz-jkfit.gbs 
    atoms 3, 12      entry O          line   286 file /home/kchung25/anaconda3/envs/p415env/share/psi4/basis/aug-cc-pvtz-jkfit.gbs 
    atoms 4-9, 13-18 entry H          line    70 file /home/kchung25/anaconda3/envs/p415env/share/psi4/basis/aug-cc-pvtz-jkfit.gbs 

  ==> Integral Setup <==

  ==> DiskDFJK: Density-Fitted J/K Matrices <==

    J tasked:                  Yes
    K tasked:                  Yes
    wK tasked:                  No
    OpenMP threads:              1
    Integrals threads:           1
    Memory [MiB]:             7152
    Algorithm:                Core
    Integral Cache:           LOAD
    Schwarz Cutoff:          1E-12
    Fitting Condition:       1E-10

   => Auxiliary Basis Set <=

  Basis Set: (AUG-CC-PVTZ AUX)
    Blend: AUG-CC-PVTZ-JKFIT
    Number of shells: 348
    Number of basis functions: 1176
    Number of Cartesian functions: 1446
    Spherical Harmonics?: true
    Max angular momentum: 4

  Minimum eigenvalue in the overlap matrix is 7.9833414654E-06.
  Reciprocal condition number of the overlap matrix is 4.1945201731E-07.
    Using symmetric orthogonalization.

  ==> Pre-Iterations <==

  SCF Guess: Superposition of Atomic Densities via on-the-fly atomic UHF (no occupation information).

   -------------------------
    Irrep   Nso     Nmo    
   -------------------------
     A        552     552 
   -------------------------
    Total     552     552
   -------------------------

  ==> Iterations <==

                           Total Energy        Delta E     RMS |[F,P]|

   @DF-RHF iter SAD:  -153.45413591012061   -1.53454e+02   0.00000e+00 
   @DF-RHF iter   1:  -154.00357745762443   -5.49442e-01   9.37746e-04 DIIS/ADIIS
   @DF-RHF iter   2:  -154.11540052509309   -1.11823e-01   4.95701e-04 DIIS/ADIIS
   @DF-RHF iter   3:  -154.14340062247797   -2.80001e-02   8.37953e-05 DIIS
   @DF-RHF iter   4:  -154.14497693474308   -1.57631e-03   3.20844e-05 DIIS
   @DF-RHF iter   5:  -154.14516278087592   -1.85846e-04   6.20724e-06 DIIS
   @DF-RHF iter   6:  -154.14517305886091   -1.02780e-05   1.42098e-06 DIIS
   @DF-RHF iter   7:  -154.14517378846034   -7.29599e-07   4.04826e-07 DIIS
   @DF-RHF iter   8:  -154.14517384299063   -5.45303e-08   1.27870e-07 DIIS
   @DF-RHF iter   9:  -154.14517384911798   -6.12735e-09   3.28243e-08 DIIS
   @DF-RHF iter  10:  -154.14517384954996   -4.31982e-10   6.32842e-09 DIIS
  Energy and wave function converged.


  ==> Post-Iterations <==

    Orbital Energies [Eh]
    ---------------------

    Doubly Occupied:                                                      

       1A    -20.555496     2A    -11.273515     3A    -11.218155  
       4A     -1.362032     5A     -1.014270     6A     -0.848225  
       7A     -0.687945     8A     -0.625794     9A     -0.610697  
      10A     -0.544623    11A     -0.526178    12A     -0.480385  
      13A     -0.443232  

    Virtual:                                                              

      14A      0.024023    15A      0.032664    16A      0.035344  
      17A      0.038811    18A      0.050069    19A      0.054633  
      20A      0.056687    21A      0.061023    22A      0.065504  
      23A      0.077503    24A      0.079328    25A      0.087365  
      26A      0.100964    27A      0.111629    28A      0.113339  
      29A      0.117683    30A      0.121617    31A      0.127398  
      32A      0.132381    33A      0.138955    34A      0.146361  
      35A      0.151154    36A      0.158566    37A      0.161386  
      38A      0.166894    39A      0.168959    40A      0.178013  
      41A      0.185906    42A      0.190782    43A      0.198004  
      44A      0.208425    45A      0.216742    46A      0.228572  
      47A      0.240040    48A      0.248398    49A      0.252992  
      50A      0.257710    51A      0.269667    52A      0.273864  
      53A      0.282623    54A      0.290987    55A      0.296020  
      56A      0.300000    57A      0.307244    58A      0.312542  
      59A      0.315789    60A      0.317182    61A      0.325186  
      62A      0.333901    63A      0.338592    64A      0.347026  
      65A      0.350974    66A      0.353063    67A      0.356490  
      68A      0.362791    69A      0.369551    70A      0.373491  
      71A      0.376003    72A      0.382573    73A      0.396652  
      74A      0.398131    75A      0.405643    76A      0.416902  
      77A      0.422564    78A      0.426345    79A      0.433592  
      80A      0.442046    81A      0.444028    82A      0.448505  
      83A      0.449759    84A      0.458074    85A      0.461485  
      86A      0.467539    87A      0.480096    88A      0.485623  
      89A      0.492863    90A      0.494585    91A      0.498576  
      92A      0.507452    93A      0.509921    94A      0.512488  
      95A      0.522949    96A      0.527079    97A      0.537691  
      98A      0.542238    99A      0.544702   100A      0.552780  
     101A      0.554819   102A      0.563858   103A      0.573017  
     104A      0.577530   105A      0.579679   106A      0.597279  
     107A      0.600620   108A      0.608698   109A      0.615916  
     110A      0.630422   111A      0.634522   112A      0.636517  
     113A      0.644780   114A      0.651270   115A      0.660545  
     116A      0.671222   117A      0.675584   118A      0.684615  
     119A      0.695540   120A      0.697374   121A      0.702049  
     122A      0.715607   123A      0.726906   124A      0.735903  
     125A      0.757833   126A      0.773499   127A      0.776800  
     128A      0.789912   129A      0.801414   130A      0.818603  
     131A      0.825541   132A      0.834330   133A      0.840712  
     134A      0.851820   135A      0.855477   136A      0.869216  
     137A      0.877062   138A      0.884797   139A      0.896020  
     140A      0.900318   141A      0.916097   142A      0.919499  
     143A      0.930347   144A      0.939608   145A      0.947890  
     146A      0.958021   147A      0.964745   148A      0.971265  
     149A      0.974777   150A      0.979172   151A      0.986398  
     152A      0.993842   153A      1.005579   154A      1.011326  
     155A      1.023309   156A      1.035725   157A      1.040597  
     158A      1.043564   159A      1.048684   160A      1.058667  
     161A      1.061309   162A      1.065642   163A      1.076744  
     164A      1.083005   165A      1.087872   166A      1.096433  
     167A      1.104975   168A      1.106133   169A      1.108953  
     170A      1.116674   171A      1.118651   172A      1.137890  
     173A      1.144290   174A      1.148626   175A      1.156783  
     176A      1.161835   177A      1.164097   178A      1.182712  
     179A      1.185018   180A      1.191628   181A      1.193382  
     182A      1.199928   183A      1.213182   184A      1.220523  
     185A      1.226438   186A      1.238973   187A      1.241266  
     188A      1.246910   189A      1.258404   190A      1.259798  
     191A      1.266235   192A      1.272869   193A      1.286294  
     194A      1.301400   195A      1.302148   196A      1.324084  
     197A      1.324898   198A      1.335799   199A      1.345665  
     200A      1.350906   201A      1.360852   202A      1.362377  
     203A      1.368398   204A      1.371980   205A      1.384545  
     206A      1.393035   207A      1.398088   208A      1.404344  
     209A      1.414353   210A      1.429989   211A      1.439460  
     212A      1.452438   213A      1.455156   214A      1.468998  
     215A      1.473438   216A      1.488040   217A      1.491148  
     218A      1.507954   219A      1.511695   220A      1.529272  
     221A      1.531713   222A      1.549721   223A      1.567244  
     224A      1.573545   225A      1.584318   226A      1.594513  
     227A      1.597538   228A      1.617463   229A      1.621608  
     230A      1.634605   231A      1.640100   232A      1.646723  
     233A      1.658042   234A      1.665288   235A      1.688438  
     236A      1.691987   237A      1.707823   238A      1.715945  
     239A      1.720119   240A      1.735962   241A      1.746071  
     242A      1.759618   243A      1.767682   244A      1.780208  
     245A      1.795991   246A      1.809019   247A      1.826635  
     248A      1.830284   249A      1.832636   250A      1.845713  
     251A      1.849463   252A      1.868078   253A      1.883448  
     254A      1.893615   255A      1.905621   256A      1.906982  
     257A      1.915703   258A      1.938972   259A      1.950688  
     260A      1.951708   261A      1.967521   262A      1.977282  
     263A      1.982803   264A      2.002358   265A      2.013256  
     266A      2.032518   267A      2.036851   268A      2.056050  
     269A      2.058315   270A      2.076933   271A      2.081424  
     272A      2.097115   273A      2.099166   274A      2.117798  
     275A      2.132580   276A      2.136018   277A      2.157283  
     278A      2.172368   279A      2.182886   280A      2.199251  
     281A      2.213218   282A      2.221162   283A      2.236942  
     284A      2.247810   285A      2.261250   286A      2.267604  
     287A      2.273527   288A      2.288819   289A      2.302534  
     290A      2.324658   291A      2.340736   292A      2.362102  
     293A      2.374522   294A      2.392857   295A      2.395897  
     296A      2.432743   297A      2.448227   298A      2.465028  
     299A      2.482459   300A      2.495187   301A      2.508526  
     302A      2.523229   303A      2.548324   304A      2.579538  
     305A      2.599894   306A      2.605102   307A      2.646311  
     308A      2.657091   309A      2.678928   310A      2.703957  
     311A      2.721771   312A      2.729214   313A      2.743757  
     314A      2.764899   315A      2.775063   316A      2.792041  
     317A      2.801351   318A      2.817470   319A      2.834219  
     320A      2.864656   321A      2.869453   322A      2.895067  
     323A      2.912480   324A      2.944643   325A      2.970952  
     326A      2.993508   327A      3.026154   328A      3.037706  
     329A      3.053252   330A      3.091772   331A      3.111909  
     332A      3.125972   333A      3.180347   334A      3.196779  
     335A      3.229885   336A      3.264093   337A      3.284267  
     338A      3.296020   339A      3.361108   340A      3.386806  
     341A      3.412038   342A      3.446021   343A      3.503000  
     344A      3.506344   345A      3.531926   346A      3.536146  
     347A      3.591196   348A      3.629754   349A      3.645415  
     350A      3.685703   351A      3.694361   352A      3.721131  
     353A      3.732184   354A      3.741169   355A      3.776585  
     356A      3.783013   357A      3.784615   358A      3.811575  
     359A      3.828187   360A      3.846771   361A      3.882941  
     362A      3.917770   363A      3.931634   364A      3.964315  
     365A      3.973953   366A      3.980543   367A      3.998144  
     368A      4.039209   369A      4.054792   370A      4.086607  
     371A      4.090234   372A      4.108874   373A      4.126756  
     374A      4.142499   375A      4.148222   376A      4.167978  
     377A      4.176769   378A      4.185223   379A      4.218751  
     380A      4.226222   381A      4.246253   382A      4.249524  
     383A      4.265811   384A      4.281156   385A      4.302226  
     386A      4.309914   387A      4.327704   388A      4.362903  
     389A      4.374757   390A      4.378421   391A      4.395757  
     392A      4.436668   393A      4.450214   394A      4.468544  
     395A      4.484228   396A      4.499161   397A      4.529565  
     398A      4.547928   399A      4.564225   400A      4.576643  
     401A      4.581069   402A      4.602835   403A      4.615866  
     404A      4.622565   405A      4.642437   406A      4.653995  
     407A      4.667567   408A      4.681806   409A      4.688662  
     410A      4.724675   411A      4.729347   412A      4.739740  
     413A      4.765207   414A      4.771270   415A      4.809340  
     416A      4.822862   417A      4.834850   418A      4.861937  
     419A      4.879422   420A      4.892202   421A      4.898669  
     422A      4.915223   423A      4.929382   424A      4.940377  
     425A      4.952948   426A      4.960041   427A      4.972582  
     428A      5.018099   429A      5.027526   430A      5.032507  
     431A      5.037992   432A      5.047234   433A      5.065531  
     434A      5.089299   435A      5.095633   436A      5.110694  
     437A      5.118451   438A      5.150021   439A      5.169003  
     440A      5.199426   441A      5.213752   442A      5.229107  
     443A      5.242470   444A      5.284485   445A      5.289374  
     446A      5.322154   447A      5.328141   448A      5.367827  
     449A      5.383024   450A      5.390608   451A      5.406140  
     452A      5.426518   453A      5.454658   454A      5.473579  
     455A      5.493379   456A      5.527341   457A      5.537916  
     458A      5.558917   459A      5.562866   460A      5.574773  
     461A      5.594517   462A      5.610556   463A      5.635998  
     464A      5.647283   465A      5.651038   466A      5.679412  
     467A      5.688271   468A      5.697321   469A      5.726615  
     470A      5.760597   471A      5.765176   472A      5.786535  
     473A      5.829079   474A      5.861238   475A      5.871069  
     476A      5.903281   477A      5.964687   478A      6.012972  
     479A      6.024468   480A      6.042628   481A      6.073786  
     482A      6.105919   483A      6.131546   484A      6.172911  
     485A      6.209634   486A      6.231788   487A      6.243838  
     488A      6.266529   489A      6.294257   490A      6.304697  
     491A      6.322820   492A      6.355752   493A      6.430320  
     494A      6.498783   495A      6.568792   496A      6.721163  
     497A      6.794940   498A      6.830405   499A      6.838680  
     500A      6.878917   501A      6.893175   502A      6.947321  
     503A      7.005606   504A      7.013000   505A      7.077274  
     506A      7.098816   507A      7.180807   508A      7.211153  
     509A      7.236021   510A      7.299260   511A      7.379145  
     512A      7.424430   513A      7.529576   514A      7.550971  
     515A      7.663631   516A      7.757846   517A      7.848979  
     518A      7.865065   519A      7.877095   520A      7.890844  
     521A      7.907116   522A      7.922758   523A      7.956026  
     524A      8.026858   525A      8.109466   526A      8.187281  
     527A      8.204076   528A      8.279420   529A      8.363213  
     530A      8.402936   531A      8.409325   532A      8.591103  
     533A      8.646903   534A      8.895115   535A      9.092316  
     536A      9.945647   537A     10.101585   538A     10.374845  
     539A     10.421465   540A     10.448685   541A     10.843333  
     542A     11.125947   543A     11.935354   544A     12.316733  
     545A     13.310337   546A     14.136165   547A     16.576784  
     548A     17.806172   549A     18.743072   550A     53.471469  
     551A     54.789991   552A     66.101743  

    Final Occupation by Irrep:
              A 
    DOCC [    13 ]
    NA   [    13 ]
    NB   [    13 ]

  @DF-RHF Final Energy:  -154.14517384954996

   => Energetics <=

    Nuclear Repulsion Energy =             82.1259493249965686
    One-Electron Energy =                -372.1611471861674545
    Two-Electron Energy =                 135.8900240116209375
    Total Energy =                       -154.1451738495499626

Computation Completed


Properties will be evaluated at   0.000000,   0.000000,   0.000000 [a0]

Properties computed using the SCF density matrix


 Multipole Moments:

 ------------------------------------------------------------------------------------
     Multipole            Electronic (a.u.)      Nuclear  (a.u.)        Total (a.u.)
 ------------------------------------------------------------------------------------

 L = 1.  Multiply by 2.5417464519 to convert [e a0] to [Debye]
 Dipole X            :        -96.0851503           96.5988557            0.5137054
 Dipole Y            :          2.5483268           -2.8540912           -0.3057644
 Dipole Z            :          4.1383235           -3.7560763            0.3822472
 Magnitude           :                                                    0.7095759

 ------------------------------------------------------------------------------------

*** tstop() called on moses-razer at Sat Mar  1 21:49:39 2025
Module time:
	user time   =      92.79 seconds =       1.55 minutes
	system time =       1.38 seconds =       0.02 minutes
	total time  =         95 seconds =       1.58 minutes
Total time:
	user time   =     324.49 seconds =       5.41 minutes
	system time =       6.16 seconds =       0.10 minutes
	total time  =        331 seconds =       5.52 minutes
  Constructing Basis Sets for SAPT...

   => Loading Basis Set <=

    Name: (AUG-CC-PVTZ AUX)
    Role: RIFIT
    Keyword: DF_BASIS_SAPT
    atoms 1-2, 10-11 entry C          line   148 file /home/kchung25/anaconda3/envs/p415env/share/psi4/basis/aug-cc-pvtz-ri.gbs 
    atoms 3, 12      entry O          line   264 file /home/kchung25/anaconda3/envs/p415env/share/psi4/basis/aug-cc-pvtz-ri.gbs 
    atoms 4-9, 13-18 entry H          line    30 file /home/kchung25/anaconda3/envs/p415env/share/psi4/basis/aug-cc-pvtz-ri.gbs 

   => Loading Basis Set <=

    Name: (AUG-CC-PVTZ AUX)
    Role: JKFIT
    Keyword: DF_BASIS_ELST
    atoms 1-2, 10-11 entry C          line   162 file /home/kchung25/anaconda3/envs/p415env/share/psi4/basis/aug-cc-pvtz-jkfit.gbs 
    atoms 3, 12      entry O          line   286 file /home/kchung25/anaconda3/envs/p415env/share/psi4/basis/aug-cc-pvtz-jkfit.gbs 
    atoms 4-9, 13-18 entry H          line    70 file /home/kchung25/anaconda3/envs/p415env/share/psi4/basis/aug-cc-pvtz-jkfit.gbs 


  //>>>>>>>>>>>>>>>>>>>>>>>>>>>>>>>>>>>//
  //               SAPT2+              //
  //<<<<<<<<<<<<<<<<<<<<<<<<<<<<<<<<<<<//


*** tstart() called on moses-razer
*** at Sat Mar  1 21:49:39 2025

        SAPT2+  
    Ed Hohenstein
     6 June 2009

      Orbital Information
  --------------------------
    NSO        =       552
    NMO        =       552
    NRI        =      1188
    NOCC A     =        13
    NOCC B     =        13
    FOCC A     =         0
    FOCC B     =         0
    NVIR A     =       539
    NVIR B     =       539

    Estimated memory usage: 3939.5 MB

    Natural Orbital Cutoff:   1.000E-06
    Disp(T3) Truncation:            Yes
    CCD (vv|vv) Truncation:         Yes
    MBPT T2 Truncation:             Yes

    Monomer A: 307 virtual orbitals dropped
    Monomer B: 306 virtual orbitals dropped

    Elst10,r            =    -0.002588155728 [Eh]
    Exch10 (S^2)        =     0.005672225141 [Eh]
    Exch10              =     0.005685645685 [Eh]
    Ind20,r (A<-B)      =    -0.000919916158 [Eh]
    Ind20,r (B<-A)      =    -0.000490662686 [Eh]
    Ind20,r             =    -0.001410578844 [Eh]
    Exch-Ind20,r (A<-B) =     0.000614972484 [Eh]
    Exch-Ind20,r (B<-A) =     0.000411072147 [Eh]
    Exch-Ind20,r        =     0.001026044631 [Eh]
    Disp20              =    -0.006283407916 [Eh]
    Disp20 (NO)         =    -0.005622577444 [Eh]
    Exch-Disp20         =     0.000627667837 [Eh]
    Elst12,r            =    -0.000388522799 [Eh]
    Exch11              =     0.000108549208 [Eh]
    Exch12              =     0.000706077107 [Eh]
    Ind22               =    -0.000209165140 [Eh]
    Disp21              =     0.000294513652 [Eh]
    Disp22 (SDQ)        =     0.000158189945 [Eh]

    (i =   1 of  13)        257 seconds
    (i =   2 of  13)        496 seconds
    (i =   3 of  13)        736 seconds
    (i =   4 of  13)        975 seconds
    (i =   5 of  13)       1216 seconds
    (i =   6 of  13)       1455 seconds
    (i =   7 of  13)       1695 seconds
    (i =   8 of  13)       1935 seconds
    (i =   9 of  13)       2174 seconds
    (i =  10 of  13)       2413 seconds
    (i =  11 of  13)       2647 seconds
    (i =  12 of  13)       2886 seconds
    (i =  13 of  13)       3134 seconds

    Disp220 (T)         =    -0.000415920283 [Eh]

    (i =   1 of  13)        275 seconds
    (i =   2 of  13)        508 seconds
    (i =   3 of  13)        751 seconds
    (i =   4 of  13)        994 seconds
    (i =   5 of  13)       1237 seconds
    (i =   6 of  13)       1481 seconds
    (i =   7 of  13)       1725 seconds
    (i =   8 of  13)       1966 seconds
    (i =   9 of  13)       2208 seconds
    (i =  10 of  13)       2450 seconds
    (i =  11 of  13)       2690 seconds
    (i =  12 of  13)       2959 seconds
    (i =  13 of  13)       3198 seconds

    Disp202 (T)         =    -0.000465693793 [Eh]

    Disp22 (T)          =    -0.000881614076 [Eh]

    Est. Disp220 (T)    =    -0.000464804055 [Eh]
    Est. Disp202 (T)    =    -0.000520427525 [Eh]

    Est. Disp22 (T)     =    -0.000985231580 [Eh]

    SAPT Results 
  --------------------------------------------------------------------------------------------------------
    Electrostatics                 -2.97667853 [mEh]      -1.86789398 [kcal/mol]      -7.81526840 [kJ/mol]
      Elst10,r                     -2.58815573 [mEh]      -1.62409224 [kcal/mol]      -6.79520193 [kJ/mol]
      Elst12,r                     -0.38852280 [mEh]      -0.24380174 [kcal/mol]      -1.02006647 [kJ/mol]

    Exchange                        6.50027200 [mEh]       4.07898226 [kcal/mol]      17.06646178 [kJ/mol]
      Exch10                        5.68564569 [mEh]       3.56779653 [kcal/mol]      14.92766069 [kJ/mol]
      Exch10(S^2)                   5.67222514 [mEh]       3.55937501 [kcal/mol]      14.89242506 [kJ/mol]
      Exch11(S^2)                   0.10854921 [mEh]       0.06811566 [kcal/mol]       0.28499591 [kJ/mol]
      Exch12(S^2)                   0.70607711 [mEh]       0.44307007 [kcal/mol]       1.85380519 [kJ/mol]

    Induction                      -0.82203440 [mEh]      -0.51583437 [kcal/mol]      -2.15825102 [kJ/mol]
      Ind20,r                      -1.41057884 [mEh]      -0.88515159 [kcal/mol]      -3.70347424 [kJ/mol]
      Ind22                        -0.20916514 [mEh]      -0.13125311 [kcal/mol]      -0.54916300 [kJ/mol]
      Exch-Ind20,r                  1.02604463 [mEh]       0.64385273 [kcal/mol]       2.69387981 [kJ/mol]
      Exch-Ind22                    0.15214518 [mEh]       0.09547254 [kcal/mol]       0.39945711 [kJ/mol]
      delta HF,r (2)               -0.38048023 [mEh]      -0.23875495 [kcal/mol]      -0.99895070 [kJ/mol]

    Dispersion                     -6.18826806 [mEh]      -3.88319684 [kcal/mol]     -16.24729556 [kJ/mol]
      Disp20                       -6.28340792 [mEh]      -3.94289799 [kcal/mol]     -16.49708521 [kJ/mol]
      Disp21                        0.29451365 [mEh]       0.18481011 [kcal/mol]       0.77324549 [kJ/mol]
      Disp22 (SDQ)                  0.15818994 [mEh]       0.09926569 [kcal/mol]       0.41532764 [kJ/mol]
      Disp22 (T)                   -0.88161408 [mEh]      -0.55322118 [kcal/mol]      -2.31467744 [kJ/mol]
      Est. Disp22 (T)              -0.98523158 [mEh]      -0.61824215 [kcal/mol]      -2.58672516 [kJ/mol]
      Exch-Disp20                   0.62766784 [mEh]       0.39386751 [kcal/mol]       1.64794168 [kJ/mol]

  Total HF                          2.33247552 [mEh]       1.46365049 [kcal/mol]       6.12391363 [kJ/mol]
  Total SAPT0                      -3.32326456 [mEh]      -2.08538000 [kcal/mol]      -8.72522990 [kJ/mol]
  Total SAPT2                      -2.95418101 [mEh]      -1.85377657 [kcal/mol]      -7.75620117 [kJ/mol]
  Total SAPT2+                     -3.48670899 [mEh]      -2.18794292 [kcal/mol]      -9.15435320 [kJ/mol]

  Special recipe for scaled SAPT0 (see Manual):
    Electrostatics sSAPT0          -2.58815573 [mEh]      -1.62409224 [kcal/mol]      -6.79520193 [kJ/mol]
    Exchange sSAPT0                 5.68564569 [mEh]       3.56779653 [kcal/mol]      14.92766069 [kJ/mol]
    Induction sSAPT0               -0.75771430 [mEh]      -0.47547290 [kcal/mol]      -1.98937861 [kJ/mol]
    Dispersion sSAPT0              -5.65127432 [mEh]      -3.54622818 [kcal/mol]     -14.83741869 [kJ/mol]
  Total sSAPT0                     -3.31149866 [mEh]      -2.07799678 [kcal/mol]      -8.69433854 [kJ/mol]
  --------------------------------------------------------------------------------------------------------

*** tstop() called on moses-razer at Sun Mar  2 00:05:26 2025
Module time:
	user time   =    7988.19 seconds =     133.14 minutes
	system time =     123.53 seconds =       2.06 minutes
	total time  =       8147 seconds =     135.78 minutes
Total time:
	user time   =    8312.88 seconds =     138.55 minutes
	system time =     129.69 seconds =       2.16 minutes
	total time  =       8478 seconds =     141.30 minutes

    Psi4 stopped on: Sunday, 02 March 2025 12:05AM
    Psi4 wall time for execution: 2:21:18.78

*** Psi4 exiting successfully. Buy a developer a beer!
