
    -----------------------------------------------------------------------
          Psi4: An Open-Source Ab Initio Electronic Structure Package
                               Psi4 1.9 release

                         Git: Rev {} zzzzzzz 


    D. G. A. Smith, L. A. Burns, A. C. Simmonett, R. M. Parrish,
    M. C. Schieber, R. Galvelis, P. Kraus, H. Kruse, R. Di Remigio,
    A. Alenaizan, A. M. James, S. Lehtola, J. P. Misiewicz, M. Scheurer,
    R. A. Shaw, J. B. Schriber, Y. Xie, Z. L. Glick, D. A. Sirianni,
    J. S. O'Brien, J. M. Waldrop, A. Kumar, E. G. Hohenstein,
    B. P. Pritchard, B. R. Brooks, H. F. Schaefer III, A. Yu. Sokolov,
    K. Patkowski, A. E. DePrince III, U. Bozkaya, R. A. King,
    F. A. Evangelista, J. M. Turney, T. D. Crawford, C. D. Sherrill,
    J. Chem. Phys. 152(18) 184108 (2020). https://doi.org/10.1063/5.0006002

                            Additional Code Authors
    E. T. Seidl, C. L. Janssen, E. F. Valeev, M. L. Leininger,
    J. F. Gonthier, R. M. Richard, H. R. McAlexander, M. Saitow, X. Wang,
    P. Verma, M. H. Lechner, A. Jiang, S. Behnle, A. G. Heide,
    M. F. Herbst, and D. L. Poole

             Previous Authors, Complete List of Code Contributors,
                       and Citations for Specific Modules
    https://github.com/psi4/psi4/blob/master/codemeta.json
    https://github.com/psi4/psi4/graphs/contributors
    http://psicode.org/psi4manual/master/introduction.html#citing-psifour

    -----------------------------------------------------------------------


    Psi4 started on: Sunday, 02 March 2025 02:15AM

    Process ID: 205144
    Host:       moses-razer
    PSIDATADIR: /home/kchung25/anaconda3/envs/psi4_19/share/psi4
    Memory:     500.0 MiB
    Threads:    1
    
  ==> Input File <==

--------------------------------------------------------------------------
MEMORY 10 GB

molecule dimer {
0 1
C    2.521503   1.163340  -0.337802
C    2.426516  -0.063692   0.523887
O    2.086643  -1.151601  -0.309039
H    2.055413  -1.952933   0.217296
H    2.780880   2.039217   0.258849
H    1.567968   1.353274  -0.835065
H    3.282709   1.030474  -1.108509
H    1.666051   0.082353   1.305854
H    3.383361  -0.244718   1.033392
--
0 1
C   -1.162206  -0.012488   0.304264
C   -2.437747  -0.279133  -0.453753
O   -3.575427   0.241443   0.195765
H   -3.440878   1.183242   0.327317
H   -0.298537  -0.461441  -0.194549
H   -1.229776  -0.415715   1.317539
H   -0.976632   1.064005   0.385188
H   -2.611313  -1.354782  -0.541506
H   -2.357366   0.110126  -1.479196

units ang
no_reorient
no_com
symmetry c1
}

set {
basis        aug-cc-pVTZ
scf_type     df
}

energy("sapt2+")
--------------------------------------------------------------------------

  Memory set to   9.313 GiB by Python driver.

Scratch directory: /scratch/
   => Loading Basis Set <=

    Name: AUG-CC-PVTZ
    Role: ORBITAL
    Keyword: BASIS
    atoms 1-2, 10-11 entry C          line   239 file /home/kchung25/anaconda3/envs/p415env/share/psi4/basis/aug-cc-pvtz.gbs 
    atoms 3, 12      entry O          line   331 file /home/kchung25/anaconda3/envs/p415env/share/psi4/basis/aug-cc-pvtz.gbs 
    atoms 4-9, 13-18 entry H          line    40 file /home/kchung25/anaconda3/envs/p415env/share/psi4/basis/aug-cc-pvtz.gbs 

   => Loading Basis Set <=

    Name: AUG-CC-PVTZ
    Role: ORBITAL
    Keyword: BASIS
    atoms 1-2, 10-11 entry C          line   239 file /home/kchung25/anaconda3/envs/p415env/share/psi4/basis/aug-cc-pvtz.gbs 
    atoms 3, 12      entry O          line   331 file /home/kchung25/anaconda3/envs/p415env/share/psi4/basis/aug-cc-pvtz.gbs 
    atoms 4-9, 13-18 entry H          line    40 file /home/kchung25/anaconda3/envs/p415env/share/psi4/basis/aug-cc-pvtz.gbs 


  //>>>>>>>>>>>>>>>>>>>>>>>>>>>>>>>>>>>//
  //              Dimer HF             //
  //<<<<<<<<<<<<<<<<<<<<<<<<<<<<<<<<<<<//

   => Libint2 <=

    Primary   basis highest AM E, G, H:  5, 4, 3
    Auxiliary basis highest AM E, G, H:  6, 5, 4
    Onebody   basis highest AM E, G, H:  6, 5, 4
    Solid Harmonics ordering:            gaussian

*** tstart() called on moses-razer
*** at Sun Mar  2 02:15:22 2025

   => Loading Basis Set <=

    Name: AUG-CC-PVTZ
    Role: ORBITAL
    Keyword: BASIS
    atoms 1-2, 10-11 entry C          line   239 file /home/kchung25/anaconda3/envs/p415env/share/psi4/basis/aug-cc-pvtz.gbs 
    atoms 3, 12      entry O          line   331 file /home/kchung25/anaconda3/envs/p415env/share/psi4/basis/aug-cc-pvtz.gbs 
    atoms 4-9, 13-18 entry H          line    40 file /home/kchung25/anaconda3/envs/p415env/share/psi4/basis/aug-cc-pvtz.gbs 


         ---------------------------------------------------------
                                   SCF
               by Justin Turney, Rob Parrish, Andy Simmonett
                          and Daniel G. A. Smith
                              RHF Reference
                        1 Threads,   9536 MiB Core
         ---------------------------------------------------------

  ==> Geometry <==

    Molecular point group: c1
    Full point group: C1

    Geometry (in Angstrom), charge = 0, multiplicity = 1:

       Center              X                  Y                   Z               Mass       
    ------------   -----------------  -----------------  -----------------  -----------------
         C            2.521503000000     1.163340000000    -0.337802000000    12.000000000000
         C            2.426516000000    -0.063692000000     0.523887000000    12.000000000000
         O            2.086643000000    -1.151601000000    -0.309039000000    15.994914619570
         H            2.055413000000    -1.952933000000     0.217296000000     1.007825032230
         H            2.780880000000     2.039217000000     0.258849000000     1.007825032230
         H            1.567968000000     1.353274000000    -0.835065000000     1.007825032230
         H            3.282709000000     1.030474000000    -1.108509000000     1.007825032230
         H            1.666051000000     0.082353000000     1.305854000000     1.007825032230
         H            3.383361000000    -0.244718000000     1.033392000000     1.007825032230
         C           -1.162206000000    -0.012488000000     0.304264000000    12.000000000000
         C           -2.437747000000    -0.279133000000    -0.453753000000    12.000000000000
         O           -3.575427000000     0.241443000000     0.195765000000    15.994914619570
         H           -3.440878000000     1.183242000000     0.327317000000     1.007825032230
         H           -0.298537000000    -0.461441000000    -0.194549000000     1.007825032230
         H           -1.229776000000    -0.415715000000     1.317539000000     1.007825032230
         H           -0.976632000000     1.064005000000     0.385188000000     1.007825032230
         H           -2.611313000000    -1.354782000000    -0.541506000000     1.007825032230
         H           -2.357366000000     0.110126000000    -1.479196000000     1.007825032230

  Running in c1 symmetry.

  Rotational constants: A =      0.22508  B =      0.02833  C =      0.02673 [cm^-1]
  Rotational constants: A =   6747.76434  B =    849.26828  C =    801.47586 [MHz]
  Nuclear repulsion =  241.392140575823959

  Charge       = 0
  Multiplicity = 1
  Electrons    = 52
  Nalpha       = 26
  Nbeta        = 26

  ==> Algorithm <==

  SCF Algorithm Type is DF.
  DIIS enabled.
  MOM disabled.
  Fractional occupation disabled.
  Guess Type is SAD.
  Energy threshold   = 1.00e-08
  Density threshold  = 1.00e-08
  Integral threshold = 1.00e-12

  ==> Primary Basis <==

  Basis Set: AUG-CC-PVTZ
    Blend: AUG-CC-PVTZ
    Number of shells: 192
    Number of basis functions: 552
    Number of Cartesian functions: 630
    Spherical Harmonics?: true
    Max angular momentum: 3

   => Loading Basis Set <=

    Name: (AUG-CC-PVTZ AUX)
    Role: JKFIT
    Keyword: DF_BASIS_SCF
    atoms 1-2, 10-11 entry C          line   162 file /home/kchung25/anaconda3/envs/p415env/share/psi4/basis/aug-cc-pvtz-jkfit.gbs 
    atoms 3, 12      entry O          line   286 file /home/kchung25/anaconda3/envs/p415env/share/psi4/basis/aug-cc-pvtz-jkfit.gbs 
    atoms 4-9, 13-18 entry H          line    70 file /home/kchung25/anaconda3/envs/p415env/share/psi4/basis/aug-cc-pvtz-jkfit.gbs 

  ==> Integral Setup <==

  ==> DiskDFJK: Density-Fitted J/K Matrices <==

    J tasked:                  Yes
    K tasked:                  Yes
    wK tasked:                  No
    OpenMP threads:              1
    Integrals threads:           1
    Memory [MiB]:             7152
    Algorithm:                Core
    Integral Cache:           SAVE
    Schwarz Cutoff:          1E-12
    Fitting Condition:       1E-10

   => Auxiliary Basis Set <=

  Basis Set: (AUG-CC-PVTZ AUX)
    Blend: AUG-CC-PVTZ-JKFIT
    Number of shells: 348
    Number of basis functions: 1176
    Number of Cartesian functions: 1446
    Spherical Harmonics?: true
    Max angular momentum: 4

  Minimum eigenvalue in the overlap matrix is 9.5757086571E-06.
  Reciprocal condition number of the overlap matrix is 5.3419690843E-07.
    Using symmetric orthogonalization.

  ==> Pre-Iterations <==

  SCF Guess: Superposition of Atomic Densities via on-the-fly atomic UHF (no occupation information).

   -------------------------
    Irrep   Nso     Nmo    
   -------------------------
     A        552     552 
   -------------------------
    Total     552     552
   -------------------------

  ==> Iterations <==

                           Total Energy        Delta E     RMS |[F,P]|

   @DF-RHF iter SAD:  -307.02617160085742   -3.07026e+02   0.00000e+00 
   @DF-RHF iter   1:  -308.00541146536557   -9.79240e-01   1.32693e-03 ADIIS/DIIS
   @DF-RHF iter   2:  -308.22816876854154   -2.22757e-01   7.07172e-04 ADIIS/DIIS
   @DF-RHF iter   3:  -308.28553998860963   -5.73712e-02   1.20102e-04 ADIIS/DIIS
   @DF-RHF iter   4:  -308.28876017830697   -3.22019e-03   4.53363e-05 DIIS
   @DF-RHF iter   5:  -308.28912605130535   -3.65873e-04   8.51548e-06 DIIS
   @DF-RHF iter   6:  -308.28914659367899   -2.05424e-05   1.94454e-06 DIIS
   @DF-RHF iter   7:  -308.28914794961690   -1.35594e-06   5.72619e-07 DIIS
   @DF-RHF iter   8:  -308.28914805338610   -1.03769e-07   1.71699e-07 DIIS
   @DF-RHF iter   9:  -308.28914806392976   -1.05437e-08   4.50916e-08 DIIS
   @DF-RHF iter  10:  -308.28914806468276   -7.53005e-10   1.38751e-08 DIIS
   @DF-RHF iter  11:  -308.28914806472687   -4.41105e-11   4.98161e-09 DIIS
  Energy and wave function converged.


  ==> Post-Iterations <==

    Orbital Energies [Eh]
    ---------------------

    Doubly Occupied:                                                      

       1A    -20.561645     2A    -20.551778     3A    -11.278100  
       4A    -11.268410     5A    -11.215300     6A    -11.210802  
       7A     -1.368349     8A     -1.358602     9A     -1.019257  
      10A     -1.008631    11A     -0.843877    12A     -0.838163  
      13A     -0.709260    14A     -0.682937    15A     -0.654040  
      16A     -0.620030    17A     -0.606096    18A     -0.579657  
      19A     -0.540098    20A     -0.538029    21A     -0.532133  
      22A     -0.517088    23A     -0.494397    24A     -0.476039  
      25A     -0.445372    26A     -0.438182  

    Virtual:                                                              

      27A      0.025706    28A      0.032678    29A      0.036670  
      30A      0.038891    31A      0.049949    32A      0.053738  
      33A      0.056161    34A      0.059058    35A      0.072760  
      36A      0.075998    37A      0.083464    38A      0.088767  
      39A      0.104659    40A      0.114501    41A      0.117926  
      42A      0.125487    43A      0.126340    44A      0.134578  
      45A      0.138521    46A      0.141260    47A      0.149392  
      48A      0.154915    49A      0.160120    50A      0.162669  
      51A      0.168674    52A      0.176193    53A      0.182088  
      54A      0.185161    55A      0.196724    56A      0.205487  
      57A      0.214234    58A      0.224378    59A      0.230265  
      60A      0.237898    61A      0.252165    62A      0.256263  
      63A      0.260890    64A      0.268026    65A      0.270938  
      66A      0.278753    67A      0.282189    68A      0.291822  
      69A      0.295321    70A      0.299533    71A      0.306569  
      72A      0.318427    73A      0.324339    74A      0.331305  
      75A      0.333963    76A      0.341735    77A      0.345363  
      78A      0.348351    79A      0.352155    80A      0.358936  
      81A      0.361880    82A      0.371102    83A      0.377809  
      84A      0.384218    85A      0.388738    86A      0.391244  
      87A      0.397548    88A      0.399283    89A      0.410016  
      90A      0.413390    91A      0.416715    92A      0.423234  
      93A      0.426472    94A      0.432432    95A      0.439191  
      96A      0.443113    97A      0.445539    98A      0.450762  
      99A      0.456230   100A      0.461698   101A      0.469522  
     102A      0.472276   103A      0.477688   104A      0.479788  
     105A      0.484577   106A      0.494797   107A      0.498825  
     108A      0.503831   109A      0.510197   110A      0.513658  
     111A      0.519293   112A      0.525935   113A      0.532220  
     114A      0.537928   115A      0.541091   116A      0.552067  
     117A      0.555477   118A      0.558859   119A      0.573349  
     120A      0.578819   121A      0.583237   122A      0.590249  
     123A      0.596511   124A      0.598928   125A      0.612168  
     126A      0.617831   127A      0.628409   128A      0.640310  
     129A      0.644924   130A      0.650459   131A      0.652850  
     132A      0.666107   133A      0.692338   134A      0.726284  
     135A      0.731111   136A      0.740903   137A      0.752720  
     138A      0.767604   139A      0.776236   140A      0.790469  
     141A      0.796495   142A      0.800191   143A      0.809263  
     144A      0.827093   145A      0.830537   146A      0.832827  
     147A      0.834096   148A      0.839541   149A      0.849680  
     150A      0.862802   151A      0.864423   152A      0.874844  
     153A      0.880412   154A      0.887710   155A      0.891256  
     156A      0.895917   157A      0.901632   158A      0.912030  
     159A      0.917241   160A      0.924597   161A      0.930749  
     162A      0.933438   163A      0.941742   164A      0.946005  
     165A      0.952668   166A      0.960031   167A      0.974086  
     168A      0.977920   169A      0.985602   170A      0.994947  
     171A      1.001748   172A      1.012247   173A      1.016326  
     174A      1.019903   175A      1.028101   176A      1.030383  
     177A      1.037548   178A      1.044850   179A      1.048703  
     180A      1.060593   181A      1.064316   182A      1.077987  
     183A      1.082020   184A      1.090084   185A      1.095218  
     186A      1.103101   187A      1.107078   188A      1.114363  
     189A      1.117576   190A      1.129275   191A      1.132035  
     192A      1.140804   193A      1.146067   194A      1.149080  
     195A      1.155848   196A      1.166889   197A      1.176559  
     198A      1.181539   199A      1.184123   200A      1.197471  
     201A      1.203327   202A      1.204333   203A      1.208952  
     204A      1.221386   205A      1.227168   206A      1.238984  
     207A      1.240924   208A      1.249327   209A      1.271717  
     210A      1.277258   211A      1.291426   212A      1.292366  
     213A      1.295320   214A      1.316132   215A      1.318670  
     216A      1.330476   217A      1.337549   218A      1.352798  
     219A      1.355173   220A      1.362554   221A      1.380968  
     222A      1.387111   223A      1.391869   224A      1.401069  
     225A      1.409111   226A      1.422401   227A      1.424894  
     228A      1.458832   229A      1.462057   230A      1.467781  
     231A      1.476388   232A      1.478689   233A      1.500143  
     234A      1.510165   235A      1.524472   236A      1.533801  
     237A      1.539216   238A      1.552330   239A      1.563032  
     240A      1.572643   241A      1.581258   242A      1.605699  
     243A      1.616097   244A      1.622586   245A      1.628290  
     246A      1.637052   247A      1.652431   248A      1.654951  
     249A      1.666714   250A      1.672890   251A      1.684264  
     252A      1.688421   253A      1.692866   254A      1.702905  
     255A      1.713154   256A      1.723726   257A      1.731462  
     258A      1.741918   259A      1.748242   260A      1.753699  
     261A      1.764804   262A      1.770218   263A      1.779085  
     264A      1.788561   265A      1.792952   266A      1.808465  
     267A      1.817191   268A      1.830803   269A      1.834449  
     270A      1.849684   271A      1.854804   272A      1.857997  
     273A      1.874327   274A      1.889449   275A      1.902992  
     276A      1.927983   277A      1.937800   278A      1.951734  
     279A      1.963465   280A      1.970633   281A      1.983224  
     282A      1.991262   283A      2.005280   284A      2.012427  
     285A      2.025668   286A      2.038989   287A      2.055771  
     288A      2.064789   289A      2.087384   290A      2.092466  
     291A      2.099185   292A      2.112070   293A      2.121534  
     294A      2.130984   295A      2.142178   296A      2.150690  
     297A      2.168170   298A      2.185035   299A      2.198133  
     300A      2.220204   301A      2.228049   302A      2.236320  
     303A      2.266529   304A      2.268106   305A      2.281171  
     306A      2.286292   307A      2.311525   308A      2.323020  
     309A      2.344221   310A      2.370206   311A      2.374844  
     312A      2.392401   313A      2.415312   314A      2.429093  
     315A      2.437202   316A      2.471853   317A      2.474658  
     318A      2.490525   319A      2.517777   320A      2.565352  
     321A      2.609478   322A      2.625769   323A      2.631852  
     324A      2.638932   325A      2.691113   326A      2.716445  
     327A      2.731293   328A      2.756755   329A      2.809686  
     330A      2.818524   331A      2.846877   332A      2.850053  
     333A      2.893524   334A      2.899273   335A      2.925376  
     336A      2.944277   337A      2.960564   338A      2.972199  
     339A      2.996491   340A      3.003463   341A      3.011262  
     342A      3.042937   343A      3.056356   344A      3.095564  
     345A      3.111777   346A      3.147711   347A      3.187782  
     348A      3.251051   349A      3.259176   350A      3.313243  
     351A      3.372681   352A      3.385458   353A      3.438500  
     354A      3.445684   355A      3.464628   356A      3.472398  
     357A      3.478528   358A      3.508966   359A      3.530371  
     360A      3.547419   361A      3.592567   362A      3.605390  
     363A      3.618950   364A      3.629922   365A      3.637730  
     366A      3.651614   367A      3.683408   368A      3.691530  
     369A      3.703591   370A      3.713811   371A      3.721386  
     372A      3.749583   373A      3.757071   374A      3.775502  
     375A      3.790528   376A      3.795431   377A      3.810941  
     378A      3.823288   379A      3.831737   380A      3.844952  
     381A      3.854286   382A      3.880503   383A      3.916864  
     384A      3.925769   385A      3.951235   386A      3.953024  
     387A      3.965544   388A      3.976727   389A      3.986540  
     390A      3.989841   391A      4.004665   392A      4.019295  
     393A      4.032219   394A      4.054924   395A      4.067107  
     396A      4.081448   397A      4.096196   398A      4.102670  
     399A      4.118249   400A      4.127861   401A      4.141116  
     402A      4.149897   403A      4.165221   404A      4.176614  
     405A      4.179640   406A      4.196592   407A      4.210904  
     408A      4.221605   409A      4.238615   410A      4.253778  
     411A      4.264317   412A      4.273732   413A      4.287470  
     414A      4.334335   415A      4.344825   416A      4.366020  
     417A      4.372636   418A      4.392949   419A      4.411843  
     420A      4.430060   421A      4.459776   422A      4.481706  
     423A      4.485321   424A      4.508844   425A      4.533999  
     426A      4.540685   427A      4.564132   428A      4.577727  
     429A      4.588358   430A      4.601776   431A      4.621295  
     432A      4.643543   433A      4.647894   434A      4.675803  
     435A      4.699064   436A      4.717075   437A      4.736063  
     438A      4.744376   439A      4.759766   440A      4.786415  
     441A      4.798091   442A      4.817061   443A      4.838565  
     444A      4.854889   445A      4.873048   446A      4.878986  
     447A      4.891960   448A      4.902578   449A      4.921358  
     450A      4.930933   451A      4.952265   452A      4.963764  
     453A      4.986692   454A      4.994983   455A      5.031276  
     456A      5.051539   457A      5.082550   458A      5.086700  
     459A      5.105255   460A      5.108851   461A      5.132668  
     462A      5.145239   463A      5.157434   464A      5.181119  
     465A      5.191793   466A      5.196436   467A      5.218880  
     468A      5.232816   469A      5.242263   470A      5.265310  
     471A      5.317341   472A      5.333015   473A      5.349818  
     474A      5.369628   475A      5.377423   476A      5.397156  
     477A      5.409796   478A      5.453805   479A      5.472167  
     480A      5.477412   481A      5.494028   482A      5.511693  
     483A      5.538930   484A      5.565706   485A      5.575053  
     486A      5.597481   487A      5.619826   488A      5.636472  
     489A      5.652455   490A      5.699161   491A      5.710066  
     492A      5.744336   493A      5.749603   494A      5.765762  
     495A      5.812182   496A      5.843028   497A      5.847317  
     498A      5.872769   499A      5.998283   500A      6.017498  
     501A      6.039716   502A      6.072163   503A      6.086248  
     504A      6.112674   505A      6.167328   506A      6.196346  
     507A      6.221978   508A      6.230104   509A      6.253191  
     510A      6.272463   511A      6.298335   512A      6.323000  
     513A      6.403988   514A      6.429016   515A      6.682799  
     516A      6.712077   517A      6.725772   518A      6.767269  
     519A      6.794118   520A      6.832490   521A      6.870410  
     522A      6.882662   523A      6.956161   524A      6.973003  
     525A      6.983663   526A      6.992983   527A      7.142695  
     528A      7.207774   529A      7.349106   530A      7.364407  
     531A      7.381767   532A      7.387747   533A      7.453147  
     534A      7.525419   535A      7.535663   536A      7.552042  
     537A      7.624921   538A      7.651043   539A      7.840476  
     540A      7.846473   541A      7.910021   542A      7.982292  
     543A      8.227419   544A      8.289365   545A      8.592974  
     546A      8.633155   547A     16.174526   548A     16.236077  
     549A     17.983865   550A     18.009348   551A     18.434600  
     552A     18.925922  

    Final Occupation by Irrep:
              A 
    DOCC [    26 ]
    NA   [    26 ]
    NB   [    26 ]

  @DF-RHF Final Energy:  -308.28914806472687

   => Energetics <=

    Nuclear Repulsion Energy =            241.3921405758239587
    One-Electron Energy =                -898.6500345929982814
    Two-Electron Energy =                 348.9687459524474207
    Total Energy =                       -308.2891480647268736

Computation Completed


Properties will be evaluated at   0.000000,   0.000000,   0.000000 [a0]

Properties computed using the SCF density matrix


 Multipole Moments:

 ------------------------------------------------------------------------------------
     Multipole            Electronic (a.u.)      Nuclear  (a.u.)        Total (a.u.)
 ------------------------------------------------------------------------------------

 L = 1.  Multiply by 2.5417464519 to convert [e a0] to [Debye]
 Dipole X            :          0.8189685            0.0000076            0.8189761
 Dipole Y            :          0.2770725            0.0000000            0.2770725
 Dipole Z            :          0.4368665           -0.0000113            0.4368552
 Magnitude           :                                                    0.9686761

 ------------------------------------------------------------------------------------

*** tstop() called on moses-razer at Sun Mar  2 02:17:42 2025
Module time:
	user time   =     135.80 seconds =       2.26 minutes
	system time =       3.29 seconds =       0.05 minutes
	total time  =        140 seconds =       2.33 minutes
Total time:
	user time   =     135.80 seconds =       2.26 minutes
	system time =       3.29 seconds =       0.05 minutes
	total time  =        140 seconds =       2.33 minutes

  //>>>>>>>>>>>>>>>>>>>>>>>>>>>>>>>>>>>//
  //            Monomer A HF           //
  //<<<<<<<<<<<<<<<<<<<<<<<<<<<<<<<<<<<//

   => Libint2 <=

    Primary   basis highest AM E, G, H:  5, 4, 3
    Auxiliary basis highest AM E, G, H:  6, 5, 4
    Onebody   basis highest AM E, G, H:  6, 5, 4
    Solid Harmonics ordering:            gaussian

*** tstart() called on moses-razer
*** at Sun Mar  2 02:17:42 2025

   => Loading Basis Set <=

    Name: AUG-CC-PVTZ
    Role: ORBITAL
    Keyword: BASIS
    atoms 1-2, 10-11 entry C          line   239 file /home/kchung25/anaconda3/envs/p415env/share/psi4/basis/aug-cc-pvtz.gbs 
    atoms 3, 12      entry O          line   331 file /home/kchung25/anaconda3/envs/p415env/share/psi4/basis/aug-cc-pvtz.gbs 
    atoms 4-9, 13-18 entry H          line    40 file /home/kchung25/anaconda3/envs/p415env/share/psi4/basis/aug-cc-pvtz.gbs 


         ---------------------------------------------------------
                                   SCF
               by Justin Turney, Rob Parrish, Andy Simmonett
                          and Daniel G. A. Smith
                              RHF Reference
                        1 Threads,   9536 MiB Core
         ---------------------------------------------------------

  ==> Geometry <==

    Molecular point group: c1
    Full point group: C1

    Geometry (in Angstrom), charge = 0, multiplicity = 1:

       Center              X                  Y                   Z               Mass       
    ------------   -----------------  -----------------  -----------------  -----------------
         C            2.521503000000     1.163340000000    -0.337802000000    12.000000000000
         C            2.426516000000    -0.063692000000     0.523887000000    12.000000000000
         O            2.086643000000    -1.151601000000    -0.309039000000    15.994914619570
         H            2.055413000000    -1.952933000000     0.217296000000     1.007825032230
         H            2.780880000000     2.039217000000     0.258849000000     1.007825032230
         H            1.567968000000     1.353274000000    -0.835065000000     1.007825032230
         H            3.282709000000     1.030474000000    -1.108509000000     1.007825032230
         H            1.666051000000     0.082353000000     1.305854000000     1.007825032230
         H            3.383361000000    -0.244718000000     1.033392000000     1.007825032230
      Gh(C)          -1.162206000000    -0.012488000000     0.304264000000    12.000000000000
      Gh(C)          -2.437747000000    -0.279133000000    -0.453753000000    12.000000000000
      Gh(O)          -3.575427000000     0.241443000000     0.195765000000    15.994914619570
      Gh(H)          -3.440878000000     1.183242000000     0.327317000000     1.007825032230
      Gh(H)          -0.298537000000    -0.461441000000    -0.194549000000     1.007825032230
      Gh(H)          -1.229776000000    -0.415715000000     1.317539000000     1.007825032230
      Gh(H)          -0.976632000000     1.064005000000     0.385188000000     1.007825032230
      Gh(H)          -2.611313000000    -1.354782000000    -0.541506000000     1.007825032230
      Gh(H)          -2.357366000000     0.110126000000    -1.479196000000     1.007825032230

  Running in c1 symmetry.

  Rotational constants: A =      0.22508  B =      0.02833  C =      0.02673 [cm^-1]
  Rotational constants: A =   6747.76434  B =    849.26828  C =    801.47586 [MHz]
  Nuclear repulsion =   82.270099583507530

  Charge       = 0
  Multiplicity = 1
  Electrons    = 26
  Nalpha       = 13
  Nbeta        = 13

  ==> Algorithm <==

  SCF Algorithm Type is DF.
  DIIS enabled.
  MOM disabled.
  Fractional occupation disabled.
  Guess Type is SAD.
  Energy threshold   = 1.00e-08
  Density threshold  = 1.00e-08
  Integral threshold = 1.00e-12

  ==> Primary Basis <==

  Basis Set: AUG-CC-PVTZ
    Blend: AUG-CC-PVTZ
    Number of shells: 192
    Number of basis functions: 552
    Number of Cartesian functions: 630
    Spherical Harmonics?: true
    Max angular momentum: 3

   => Loading Basis Set <=

    Name: (AUG-CC-PVTZ AUX)
    Role: JKFIT
    Keyword: DF_BASIS_SCF
    atoms 1-2, 10-11 entry C          line   162 file /home/kchung25/anaconda3/envs/p415env/share/psi4/basis/aug-cc-pvtz-jkfit.gbs 
    atoms 3, 12      entry O          line   286 file /home/kchung25/anaconda3/envs/p415env/share/psi4/basis/aug-cc-pvtz-jkfit.gbs 
    atoms 4-9, 13-18 entry H          line    70 file /home/kchung25/anaconda3/envs/p415env/share/psi4/basis/aug-cc-pvtz-jkfit.gbs 

  ==> Integral Setup <==

  ==> DiskDFJK: Density-Fitted J/K Matrices <==

    J tasked:                  Yes
    K tasked:                  Yes
    wK tasked:                  No
    OpenMP threads:              1
    Integrals threads:           1
    Memory [MiB]:             7152
    Algorithm:                Core
    Integral Cache:           LOAD
    Schwarz Cutoff:          1E-12
    Fitting Condition:       1E-10

   => Auxiliary Basis Set <=

  Basis Set: (AUG-CC-PVTZ AUX)
    Blend: AUG-CC-PVTZ-JKFIT
    Number of shells: 348
    Number of basis functions: 1176
    Number of Cartesian functions: 1446
    Spherical Harmonics?: true
    Max angular momentum: 4

  Minimum eigenvalue in the overlap matrix is 9.5757086570E-06.
  Reciprocal condition number of the overlap matrix is 5.3419690843E-07.
    Using symmetric orthogonalization.

  ==> Pre-Iterations <==

  SCF Guess: Superposition of Atomic Densities via on-the-fly atomic UHF (no occupation information).

   -------------------------
    Irrep   Nso     Nmo    
   -------------------------
     A        552     552 
   -------------------------
    Total     552     552
   -------------------------

  ==> Iterations <==

                           Total Energy        Delta E     RMS |[F,P]|

   @DF-RHF iter SAD:  -153.45002036467645   -1.53450e+02   0.00000e+00 
   @DF-RHF iter   1:  -153.99868181070551   -5.48661e-01   9.60955e-04 ADIIS/DIIS
   @DF-RHF iter   2:  -154.11082783202420   -1.12146e-01   5.35097e-04 ADIIS/DIIS
   @DF-RHF iter   3:  -154.14385240282701   -3.30246e-02   8.44574e-05 DIIS
   @DF-RHF iter   4:  -154.14544962978931   -1.59723e-03   3.23688e-05 DIIS
   @DF-RHF iter   5:  -154.14563383357927   -1.84204e-04   5.76210e-06 DIIS
   @DF-RHF iter   6:  -154.14564343717325   -9.60359e-06   1.27633e-06 DIIS
   @DF-RHF iter   7:  -154.14564399306099   -5.55888e-07   3.92113e-07 DIIS
   @DF-RHF iter   8:  -154.14564403689991   -4.38389e-08   1.05053e-07 DIIS
   @DF-RHF iter   9:  -154.14564404108773   -4.18783e-09   2.52992e-08 DIIS
   @DF-RHF iter  10:  -154.14564404135155   -2.63810e-10   4.81617e-09 DIIS
  Energy and wave function converged.


  ==> Post-Iterations <==

    Orbital Energies [Eh]
    ---------------------

    Doubly Occupied:                                                      

       1A    -20.555724     2A    -11.273726     3A    -11.210695  
       4A     -1.361754     5A     -1.014041     6A     -0.833192  
       7A     -0.703335     8A     -0.645628     9A     -0.573769  
      10A     -0.533584    11A     -0.524148    12A     -0.489144  
      13A     -0.440146  

    Virtual:                                                              

      14A      0.021826    15A      0.031868    16A      0.036273  
      17A      0.039247    18A      0.050248    19A      0.052817  
      20A      0.054190    21A      0.060270    22A      0.072261  
      23A      0.076853    24A      0.079045    25A      0.088279  
      26A      0.094997    27A      0.105908    28A      0.114649  
      29A      0.118880    30A      0.123018    31A      0.129394  
      32A      0.133275    33A      0.136403    34A      0.142566  
      35A      0.144237    36A      0.153097    37A      0.155733  
      38A      0.164357    39A      0.176659    40A      0.182498  
      41A      0.183476    42A      0.189359    43A      0.196048  
      44A      0.206713    45A      0.231874    46A      0.233773  
      47A      0.234940    48A      0.242867    49A      0.250360  
      50A      0.265515    51A      0.271252    52A      0.275764  
      53A      0.278391    54A      0.286208    55A      0.287122  
      56A      0.290141    57A      0.296729    58A      0.303484  
      59A      0.307246    60A      0.313176    61A      0.318147  
      62A      0.327191    63A      0.329468    64A      0.333685  
      65A      0.340847    66A      0.344850    67A      0.352482  
      68A      0.353868    69A      0.370186    70A      0.370369  
      71A      0.378132    72A      0.380305    73A      0.385665  
      74A      0.400048    75A      0.404702    76A      0.410586  
      77A      0.413702    78A      0.418479    79A      0.427408  
      80A      0.431401    81A      0.435660    82A      0.444419  
      83A      0.449587    84A      0.451718    85A      0.454483  
      86A      0.463869    87A      0.466776    88A      0.472251  
      89A      0.480827    90A      0.491187    91A      0.493074  
      92A      0.497545    93A      0.504083    94A      0.509334  
      95A      0.517763    96A      0.519636    97A      0.525350  
      98A      0.531612    99A      0.537033   100A      0.545938  
     101A      0.550555   102A      0.552913   103A      0.567673  
     104A      0.570208   105A      0.573063   106A      0.579743  
     107A      0.587805   108A      0.592586   109A      0.605608  
     110A      0.609237   111A      0.617958   112A      0.622267  
     113A      0.624329   114A      0.638162   115A      0.644773  
     116A      0.650906   117A      0.665150   118A      0.672007  
     119A      0.677518   120A      0.688697   121A      0.689625  
     122A      0.704356   123A      0.732808   124A      0.735613  
     125A      0.743332   126A      0.760458   127A      0.766698  
     128A      0.790972   129A      0.802453   130A      0.810204  
     131A      0.819905   132A      0.832772   133A      0.841839  
     134A      0.850772   135A      0.858064   136A      0.862590  
     137A      0.874187   138A      0.881328   139A      0.883682  
     140A      0.901585   141A      0.905730   142A      0.912464  
     143A      0.920338   144A      0.928305   145A      0.937151  
     146A      0.949350   147A      0.954450   148A      0.958385  
     149A      0.967917   150A      0.974010   151A      0.983210  
     152A      0.989598   153A      0.994077   154A      1.004775  
     155A      1.019251   156A      1.022782   157A      1.023892  
     158A      1.026214   159A      1.043086   160A      1.049217  
     161A      1.050626   162A      1.053109   163A      1.065801  
     164A      1.076341   165A      1.079392   166A      1.086697  
     167A      1.091941   168A      1.096000   169A      1.102654  
     170A      1.110612   171A      1.113200   172A      1.122436  
     173A      1.128056   174A      1.132312   175A      1.144441  
     176A      1.146408   177A      1.150555   178A      1.152440  
     179A      1.156526   180A      1.167237   181A      1.175139  
     182A      1.180785   183A      1.186878   184A      1.204562  
     185A      1.210199   186A      1.210857   187A      1.221472  
     188A      1.232122   189A      1.241094   190A      1.246528  
     191A      1.254108   192A      1.257136   193A      1.260537  
     194A      1.276592   195A      1.282074   196A      1.291120  
     197A      1.299428   198A      1.311347   199A      1.315182  
     200A      1.321074   201A      1.332717   202A      1.338205  
     203A      1.349211   204A      1.352829   205A      1.358806  
     206A      1.377666   207A      1.383615   208A      1.386967  
     209A      1.396694   210A      1.403497   211A      1.409803  
     212A      1.427774   213A      1.431396   214A      1.443818  
     215A      1.457709   216A      1.470723   217A      1.477121  
     218A      1.480952   219A      1.490832   220A      1.502882  
     221A      1.519263   222A      1.526543   223A      1.536350  
     224A      1.556229   225A      1.566895   226A      1.574469  
     227A      1.583920   228A      1.589304   229A      1.602831  
     230A      1.609357   231A      1.632163   232A      1.640015  
     233A      1.658196   234A      1.665452   235A      1.671292  
     236A      1.685355   237A      1.689240   238A      1.700225  
     239A      1.708490   240A      1.716670   241A      1.732461  
     242A      1.736518   243A      1.741371   244A      1.750007  
     245A      1.768411   246A      1.786308   247A      1.789040  
     248A      1.791104   249A      1.805920   250A      1.813569  
     251A      1.830056   252A      1.842248   253A      1.856395  
     254A      1.863296   255A      1.877231   256A      1.882761  
     257A      1.897903   258A      1.906697   259A      1.937520  
     260A      1.944298   261A      1.952753   262A      1.965847  
     263A      1.975582   264A      1.986243   265A      1.991902  
     266A      2.004660   267A      2.020053   268A      2.032118  
     269A      2.045873   270A      2.057783   271A      2.065552  
     272A      2.090463   273A      2.100741   274A      2.106141  
     275A      2.113199   276A      2.121637   277A      2.126151  
     278A      2.139032   279A      2.159360   280A      2.170887  
     281A      2.181318   282A      2.192543   283A      2.211565  
     284A      2.226075   285A      2.243317   286A      2.252309  
     287A      2.266012   288A      2.276526   289A      2.289213  
     290A      2.296647   291A      2.309349   292A      2.324528  
     293A      2.333139   294A      2.373449   295A      2.394931  
     296A      2.405107   297A      2.412732   298A      2.439028  
     299A      2.446567   300A      2.463769   301A      2.481564  
     302A      2.505841   303A      2.511216   304A      2.559789  
     305A      2.568256   306A      2.587259   307A      2.616610  
     308A      2.647702   309A      2.657796   310A      2.676752  
     311A      2.695741   312A      2.713292   313A      2.726505  
     314A      2.735804   315A      2.748440   316A      2.762688  
     317A      2.809819   318A      2.822917   319A      2.844492  
     320A      2.857520   321A      2.872516   322A      2.880623  
     323A      2.884123   324A      2.920534   325A      2.965601  
     326A      2.977900   327A      3.006398   328A      3.023749  
     329A      3.039278   330A      3.080057   331A      3.097580  
     332A      3.129103   333A      3.145537   334A      3.163957  
     335A      3.212193   336A      3.227107   337A      3.263968  
     338A      3.301701   339A      3.316728   340A      3.346827  
     341A      3.404422   342A      3.447530   343A      3.473213  
     344A      3.481840   345A      3.497102   346A      3.520785  
     347A      3.532128   348A      3.598456   349A      3.624056  
     350A      3.644256   351A      3.660972   352A      3.683442  
     353A      3.696211   354A      3.719758   355A      3.744152  
     356A      3.762293   357A      3.790275   358A      3.810893  
     359A      3.817830   360A      3.840102   361A      3.854321  
     362A      3.895569   363A      3.927493   364A      3.967832  
     365A      3.982818   366A      3.989540   367A      3.997271  
     368A      4.009172   369A      4.037754   370A      4.060311  
     371A      4.084495   372A      4.104087   373A      4.105571  
     374A      4.126501   375A      4.142875   376A      4.149059  
     377A      4.166261   378A      4.174386   379A      4.198664  
     380A      4.200885   381A      4.214272   382A      4.232205  
     383A      4.247993   384A      4.275507   385A      4.302622  
     386A      4.314270   387A      4.322734   388A      4.352041  
     389A      4.365509   390A      4.386014   391A      4.412664  
     392A      4.422629   393A      4.439033   394A      4.467881  
     395A      4.485718   396A      4.495396   397A      4.499327  
     398A      4.514720   399A      4.535580   400A      4.544500  
     401A      4.557836   402A      4.579166   403A      4.603692  
     404A      4.611730   405A      4.619359   406A      4.623892  
     407A      4.650181   408A      4.661831   409A      4.678351  
     410A      4.694919   411A      4.709033   412A      4.727145  
     413A      4.740492   414A      4.753961   415A      4.788180  
     416A      4.806559   417A      4.824922   418A      4.835081  
     419A      4.851315   420A      4.864473   421A      4.867362  
     422A      4.907034   423A      4.919283   424A      4.928378  
     425A      4.948886   426A      4.964888   427A      4.988458  
     428A      5.010783   429A      5.024101   430A      5.045164  
     431A      5.052350   432A      5.054382   433A      5.080825  
     434A      5.086458   435A      5.108808   436A      5.123265  
     437A      5.139166   438A      5.154615   439A      5.163661  
     440A      5.188597   441A      5.223245   442A      5.237035  
     443A      5.256726   444A      5.269559   445A      5.281527  
     446A      5.318934   447A      5.340682   448A      5.354590  
     449A      5.371107   450A      5.383557   451A      5.401101  
     452A      5.402362   453A      5.423073   454A      5.449168  
     455A      5.471435   456A      5.508255   457A      5.509189  
     458A      5.548604   459A      5.552996   460A      5.557088  
     461A      5.576017   462A      5.602014   463A      5.627024  
     464A      5.630682   465A      5.644396   466A      5.673474  
     467A      5.698184   468A      5.711387   469A      5.736963  
     470A      5.749412   471A      5.754166   472A      5.793608  
     473A      5.798499   474A      5.821195   475A      5.830564  
     476A      5.851651   477A      5.874776   478A      5.942562  
     479A      5.993551   480A      6.026309   481A      6.053289  
     482A      6.060992   483A      6.115721   484A      6.139444  
     485A      6.163905   486A      6.181304   487A      6.230272  
     488A      6.239357   489A      6.260455   490A      6.299381  
     491A      6.323361   492A      6.388882   493A      6.437078  
     494A      6.462050   495A      6.485021   496A      6.706975  
     497A      6.741539   498A      6.778986   499A      6.800716  
     500A      6.824655   501A      6.875340   502A      6.977777  
     503A      6.988859   504A      7.031832   505A      7.039211  
     506A      7.075366   507A      7.121636   508A      7.161537  
     509A      7.240056   510A      7.343051   511A      7.372050  
     512A      7.396643   513A      7.540754   514A      7.558547  
     515A      7.630058   516A      7.772966   517A      7.799391  
     518A      7.838470   519A      7.851932   520A      7.868450  
     521A      7.882312   522A      7.917898   523A      7.989136  
     524A      8.023299   525A      8.110827   526A      8.131040  
     527A      8.266992   528A      8.289605   529A      8.306116  
     530A      8.385326   531A      8.402589   532A      8.577244  
     533A      8.640063   534A      8.880105   535A      9.086541  
     536A      9.975430   537A     10.024705   538A     10.256288  
     539A     10.370334   540A     10.699010   541A     10.767349  
     542A     11.052118   543A     12.007843   544A     12.291507  
     545A     13.276019   546A     14.089620   547A     16.247255  
     548A     18.010495   549A     18.445426   550A     53.303238  
     551A     55.024295   552A     66.210916  

    Final Occupation by Irrep:
              A 
    DOCC [    13 ]
    NA   [    13 ]
    NB   [    13 ]

  @DF-RHF Final Energy:  -154.14564404135155

   => Energetics <=

    Nuclear Repulsion Energy =             82.2700995835075304
    One-Electron Energy =                -372.5137175060382901
    Two-Electron Energy =                 136.0979738811792004
    Total Energy =                       -154.1456440413515452

Computation Completed


Properties will be evaluated at   0.000000,   0.000000,   0.000000 [a0]

Properties computed using the SCF density matrix


 Multipole Moments:

 ------------------------------------------------------------------------------------
     Multipole            Electronic (a.u.)      Nuclear  (a.u.)        Total (a.u.)
 ------------------------------------------------------------------------------------

 L = 1.  Multiply by 2.5417464519 to convert [e a0] to [Debye]
 Dipole X            :       -115.3723703          115.4956010            0.1232307
 Dipole Y            :          0.5558013           -0.5806240           -0.0248227
 Dipole Z            :          1.5599083           -0.9145991            0.6453092
 Magnitude           :                                                    0.6574389

 ------------------------------------------------------------------------------------

*** tstop() called on moses-razer at Sun Mar  2 02:19:15 2025
Module time:
	user time   =      91.57 seconds =       1.53 minutes
	system time =       1.38 seconds =       0.02 minutes
	total time  =         93 seconds =       1.55 minutes
Total time:
	user time   =     227.37 seconds =       3.79 minutes
	system time =       4.67 seconds =       0.08 minutes
	total time  =        233 seconds =       3.88 minutes

  //>>>>>>>>>>>>>>>>>>>>>>>>>>>>>>>>>>>//
  //            Monomer B HF           //
  //<<<<<<<<<<<<<<<<<<<<<<<<<<<<<<<<<<<//

   => Libint2 <=

    Primary   basis highest AM E, G, H:  5, 4, 3
    Auxiliary basis highest AM E, G, H:  6, 5, 4
    Onebody   basis highest AM E, G, H:  6, 5, 4
    Solid Harmonics ordering:            gaussian

*** tstart() called on moses-razer
*** at Sun Mar  2 02:19:15 2025

   => Loading Basis Set <=

    Name: AUG-CC-PVTZ
    Role: ORBITAL
    Keyword: BASIS
    atoms 1-2, 10-11 entry C          line   239 file /home/kchung25/anaconda3/envs/p415env/share/psi4/basis/aug-cc-pvtz.gbs 
    atoms 3, 12      entry O          line   331 file /home/kchung25/anaconda3/envs/p415env/share/psi4/basis/aug-cc-pvtz.gbs 
    atoms 4-9, 13-18 entry H          line    40 file /home/kchung25/anaconda3/envs/p415env/share/psi4/basis/aug-cc-pvtz.gbs 


         ---------------------------------------------------------
                                   SCF
               by Justin Turney, Rob Parrish, Andy Simmonett
                          and Daniel G. A. Smith
                              RHF Reference
                        1 Threads,   9536 MiB Core
         ---------------------------------------------------------

  ==> Geometry <==

    Molecular point group: c1
    Full point group: C1

    Geometry (in Angstrom), charge = 0, multiplicity = 1:

       Center              X                  Y                   Z               Mass       
    ------------   -----------------  -----------------  -----------------  -----------------
      Gh(C)           2.521503000000     1.163340000000    -0.337802000000    12.000000000000
      Gh(C)           2.426516000000    -0.063692000000     0.523887000000    12.000000000000
      Gh(O)           2.086643000000    -1.151601000000    -0.309039000000    15.994914619570
      Gh(H)           2.055413000000    -1.952933000000     0.217296000000     1.007825032230
      Gh(H)           2.780880000000     2.039217000000     0.258849000000     1.007825032230
      Gh(H)           1.567968000000     1.353274000000    -0.835065000000     1.007825032230
      Gh(H)           3.282709000000     1.030474000000    -1.108509000000     1.007825032230
      Gh(H)           1.666051000000     0.082353000000     1.305854000000     1.007825032230
      Gh(H)           3.383361000000    -0.244718000000     1.033392000000     1.007825032230
         C           -1.162206000000    -0.012488000000     0.304264000000    12.000000000000
         C           -2.437747000000    -0.279133000000    -0.453753000000    12.000000000000
         O           -3.575427000000     0.241443000000     0.195765000000    15.994914619570
         H           -3.440878000000     1.183242000000     0.327317000000     1.007825032230
         H           -0.298537000000    -0.461441000000    -0.194549000000     1.007825032230
         H           -1.229776000000    -0.415715000000     1.317539000000     1.007825032230
         H           -0.976632000000     1.064005000000     0.385188000000     1.007825032230
         H           -2.611313000000    -1.354782000000    -0.541506000000     1.007825032230
         H           -2.357366000000     0.110126000000    -1.479196000000     1.007825032230

  Running in c1 symmetry.

  Rotational constants: A =      0.22508  B =      0.02833  C =      0.02673 [cm^-1]
  Rotational constants: A =   6747.76434  B =    849.26828  C =    801.47586 [MHz]
  Nuclear repulsion =   82.145952602904657

  Charge       = 0
  Multiplicity = 1
  Electrons    = 26
  Nalpha       = 13
  Nbeta        = 13

  ==> Algorithm <==

  SCF Algorithm Type is DF.
  DIIS enabled.
  MOM disabled.
  Fractional occupation disabled.
  Guess Type is SAD.
  Energy threshold   = 1.00e-08
  Density threshold  = 1.00e-08
  Integral threshold = 1.00e-12

  ==> Primary Basis <==

  Basis Set: AUG-CC-PVTZ
    Blend: AUG-CC-PVTZ
    Number of shells: 192
    Number of basis functions: 552
    Number of Cartesian functions: 630
    Spherical Harmonics?: true
    Max angular momentum: 3

   => Loading Basis Set <=

    Name: (AUG-CC-PVTZ AUX)
    Role: JKFIT
    Keyword: DF_BASIS_SCF
    atoms 1-2, 10-11 entry C          line   162 file /home/kchung25/anaconda3/envs/p415env/share/psi4/basis/aug-cc-pvtz-jkfit.gbs 
    atoms 3, 12      entry O          line   286 file /home/kchung25/anaconda3/envs/p415env/share/psi4/basis/aug-cc-pvtz-jkfit.gbs 
    atoms 4-9, 13-18 entry H          line    70 file /home/kchung25/anaconda3/envs/p415env/share/psi4/basis/aug-cc-pvtz-jkfit.gbs 

  ==> Integral Setup <==

  ==> DiskDFJK: Density-Fitted J/K Matrices <==

    J tasked:                  Yes
    K tasked:                  Yes
    wK tasked:                  No
    OpenMP threads:              1
    Integrals threads:           1
    Memory [MiB]:             7152
    Algorithm:                Core
    Integral Cache:           LOAD
    Schwarz Cutoff:          1E-12
    Fitting Condition:       1E-10

   => Auxiliary Basis Set <=

  Basis Set: (AUG-CC-PVTZ AUX)
    Blend: AUG-CC-PVTZ-JKFIT
    Number of shells: 348
    Number of basis functions: 1176
    Number of Cartesian functions: 1446
    Spherical Harmonics?: true
    Max angular momentum: 4

  Minimum eigenvalue in the overlap matrix is 9.5757086570E-06.
  Reciprocal condition number of the overlap matrix is 5.3419690843E-07.
    Using symmetric orthogonalization.

  ==> Pre-Iterations <==

  SCF Guess: Superposition of Atomic Densities via on-the-fly atomic UHF (no occupation information).

   -------------------------
    Irrep   Nso     Nmo    
   -------------------------
     A        552     552 
   -------------------------
    Total     552     552
   -------------------------

  ==> Iterations <==

                           Total Energy        Delta E     RMS |[F,P]|

   @DF-RHF iter SAD:  -153.45670064653052   -1.53457e+02   0.00000e+00 
   @DF-RHF iter   1:  -154.00366050841833   -5.46960e-01   9.36561e-04 ADIIS/DIIS
   @DF-RHF iter   2:  -154.11540257188005   -1.11742e-01   4.94526e-04 ADIIS/DIIS
   @DF-RHF iter   3:  -154.14327076141061   -2.78682e-02   8.36968e-05 DIIS
   @DF-RHF iter   4:  -154.14484550847814   -1.57475e-03   3.20228e-05 DIIS
   @DF-RHF iter   5:  -154.14503067342719   -1.85165e-04   6.21565e-06 DIIS
   @DF-RHF iter   6:  -154.14504094211583   -1.02687e-05   1.42189e-06 DIIS
   @DF-RHF iter   7:  -154.14504167333584   -7.31220e-07   4.04094e-07 DIIS
   @DF-RHF iter   8:  -154.14504172780474   -5.44689e-08   1.27725e-07 DIIS
   @DF-RHF iter   9:  -154.14504173389420   -6.08946e-09   3.28081e-08 DIIS
   @DF-RHF iter  10:  -154.14504173432158   -4.27377e-10   6.29217e-09 DIIS
  Energy and wave function converged.


  ==> Post-Iterations <==

    Orbital Energies [Eh]
    ---------------------

    Doubly Occupied:                                                      

       1A    -20.555858     2A    -11.273367     3A    -11.218913  
       4A     -1.362597     5A     -1.014469     6A     -0.848442  
       7A     -0.687245     8A     -0.625894     9A     -0.612544  
      10A     -0.543696    11A     -0.526480    12A     -0.481269  
      13A     -0.442917  

    Virtual:                                                              

      14A      0.019464    15A      0.032086    16A      0.034178  
      17A      0.036324    18A      0.049798    19A      0.052230  
      20A      0.054445    21A      0.059714    22A      0.071544  
      23A      0.073794    24A      0.080273    25A      0.083940  
      26A      0.091356    27A      0.105128    28A      0.110311  
      29A      0.115622    30A      0.118655    31A      0.126191  
      32A      0.136218    33A      0.140141    34A      0.141851  
      35A      0.143877    36A      0.154542    37A      0.159993  
      38A      0.161750    39A      0.167173    40A      0.172421  
      41A      0.184708    42A      0.192906    43A      0.197210  
      44A      0.206812    45A      0.217377    46A      0.225672  
      47A      0.231183    48A      0.239888    49A      0.251183  
      50A      0.255560    51A      0.259860    52A      0.267573  
      53A      0.273844    54A      0.275534    55A      0.281690  
      56A      0.293736    57A      0.298667    58A      0.301434  
      59A      0.311507    60A      0.319688    61A      0.326377  
      62A      0.333690    63A      0.336942    64A      0.340174  
      65A      0.341838    66A      0.343217    67A      0.354979  
      68A      0.360478    69A      0.365948    70A      0.366727  
      71A      0.373494    72A      0.385143    73A      0.386429  
      74A      0.389959    75A      0.394252    76A      0.397181  
      77A      0.408960    78A      0.410098    79A      0.415999  
      80A      0.422896    81A      0.432211    82A      0.432520  
      83A      0.439937    84A      0.444427    85A      0.449253  
      86A      0.454346    87A      0.463195    88A      0.468477  
      89A      0.469933    90A      0.480901    91A      0.485623  
      92A      0.492868    93A      0.498745    94A      0.503473  
      95A      0.509203    96A      0.516546    97A      0.521099  
      98A      0.527711    99A      0.528938   100A      0.538581  
     101A      0.550527   102A      0.557698   103A      0.563636  
     104A      0.570022   105A      0.574138   106A      0.575003  
     107A      0.581714   108A      0.590719   109A      0.608344  
     110A      0.615084   111A      0.620594   112A      0.628023  
     113A      0.630671   114A      0.634906   115A      0.646284  
     116A      0.657528   117A      0.661867   118A      0.666369  
     119A      0.675178   120A      0.685337   121A      0.694778  
     122A      0.707502   123A      0.710423   124A      0.727604  
     125A      0.734270   126A      0.754404   127A      0.771484  
     128A      0.789385   129A      0.797223   130A      0.801957  
     131A      0.808943   132A      0.822304   133A      0.829618  
     134A      0.840166   135A      0.851149   136A      0.854893  
     137A      0.871817   138A      0.882922   139A      0.889550  
     140A      0.896859   141A      0.900546   142A      0.903040  
     143A      0.917196   144A      0.924856   145A      0.933673  
     146A      0.935034   147A      0.940859   148A      0.946367  
     149A      0.958695   150A      0.969101   151A      0.983032  
     152A      0.986958   153A      0.990623   154A      0.995400  
     155A      1.005688   156A      1.019540   157A      1.026012  
     158A      1.030546   159A      1.034643   160A      1.043128  
     161A      1.047248   162A      1.053424   163A      1.059218  
     164A      1.064469   165A      1.076985   166A      1.081171  
     167A      1.089438   168A      1.097385   169A      1.099185  
     170A      1.101549   171A      1.112366   172A      1.124365  
     173A      1.125729   174A      1.131567   175A      1.143196  
     176A      1.151125   177A      1.152526   178A      1.158818  
     179A      1.164120   180A      1.167618   181A      1.179329  
     182A      1.183762   183A      1.199083   184A      1.200136  
     185A      1.206868   186A      1.212577   187A      1.217507  
     188A      1.222476   189A      1.225878   190A      1.238769  
     191A      1.243444   192A      1.251580   193A      1.256867  
     194A      1.258409   195A      1.260246   196A      1.273579  
     197A      1.282102   198A      1.296496   199A      1.303002  
     200A      1.316993   201A      1.329908   202A      1.333115  
     203A      1.350690   204A      1.353210   205A      1.364612  
     206A      1.371802   207A      1.385059   208A      1.392991  
     209A      1.406070   210A      1.414667   211A      1.416695  
     212A      1.427173   213A      1.437148   214A      1.446459  
     215A      1.448667   216A      1.449221   217A      1.469630  
     218A      1.477914   219A      1.497009   220A      1.504344  
     221A      1.514309   222A      1.521779   223A      1.527107  
     224A      1.546290   225A      1.555559   226A      1.568626  
     227A      1.577306   228A      1.581358   229A      1.593476  
     230A      1.599007   231A      1.613333   232A      1.625079  
     233A      1.634901   234A      1.644051   235A      1.665618  
     236A      1.670606   237A      1.684309   238A      1.689895  
     239A      1.700964   240A      1.704888   241A      1.718295  
     242A      1.723942   243A      1.734539   244A      1.748645  
     245A      1.759984   246A      1.775870   247A      1.789062  
     248A      1.791983   249A      1.810425   250A      1.823015  
     251A      1.831367   252A      1.835358   253A      1.846993  
     254A      1.849681   255A      1.867472   256A      1.869487  
     257A      1.887475   258A      1.914701   259A      1.923329  
     260A      1.935432   261A      1.946562   262A      1.962944  
     263A      1.967568   264A      1.987761   265A      1.995317  
     266A      2.002910   267A      2.015933   268A      2.022264  
     269A      2.035896   270A      2.050719   271A      2.054694  
     272A      2.069769   273A      2.089601   274A      2.098972  
     275A      2.111376   276A      2.123492   277A      2.137763  
     278A      2.142798   279A      2.156584   280A      2.169754  
     281A      2.177303   282A      2.193343   283A      2.213804  
     284A      2.217848   285A      2.235053   286A      2.238918  
     287A      2.250005   288A      2.266922   289A      2.279706  
     290A      2.293851   291A      2.310123   292A      2.316564  
     293A      2.328368   294A      2.347293   295A      2.374363  
     296A      2.382982   297A      2.413544   298A      2.416142  
     299A      2.434843   300A      2.445122   301A      2.468293  
     302A      2.477975   303A      2.505718   304A      2.547342  
     305A      2.568056   306A      2.575746   307A      2.605777  
     308A      2.620077   309A      2.635208   310A      2.672526  
     311A      2.701867   312A      2.710932   313A      2.724745  
     314A      2.730007   315A      2.756169   316A      2.759744  
     317A      2.781557   318A      2.792398   319A      2.826995  
     320A      2.836257   321A      2.852474   322A      2.885325  
     323A      2.895694   324A      2.937677   325A      2.963918  
     326A      2.966636   327A      2.992344   328A      2.998664  
     329A      3.043670   330A      3.092902   331A      3.107403  
     332A      3.126128   333A      3.148921   334A      3.188688  
     335A      3.194973   336A      3.279836   337A      3.303021  
     338A      3.311321   339A      3.333007   340A      3.370818  
     341A      3.395301   342A      3.451708   343A      3.459594  
     344A      3.493954   345A      3.532856   346A      3.546817  
     347A      3.571464   348A      3.584479   349A      3.616984  
     350A      3.633873   351A      3.656909   352A      3.679051  
     353A      3.693767   354A      3.707677   355A      3.747975  
     356A      3.755203   357A      3.783662   358A      3.792622  
     359A      3.835312   360A      3.841181   361A      3.861424  
     362A      3.865234   363A      3.919003   364A      3.927859  
     365A      3.952741   366A      3.979588   367A      3.997739  
     368A      4.006837   369A      4.028550   370A      4.068952  
     371A      4.088905   372A      4.111717   373A      4.122017  
     374A      4.127489   375A      4.136998   376A      4.142018  
     377A      4.164110   378A      4.173930   379A      4.198693  
     380A      4.212921   381A      4.220870   382A      4.231015  
     383A      4.237057   384A      4.265314   385A      4.274771  
     386A      4.300707   387A      4.320841   388A      4.323827  
     389A      4.335167   390A      4.362986   391A      4.399254  
     392A      4.424643   393A      4.435097   394A      4.450451  
     395A      4.468408   396A      4.472062   397A      4.485013  
     398A      4.508767   399A      4.527546   400A      4.551243  
     401A      4.567757   402A      4.582298   403A      4.589428  
     404A      4.618575   405A      4.642723   406A      4.644278  
     407A      4.655353   408A      4.676248   409A      4.687203  
     410A      4.703940   411A      4.711080   412A      4.726940  
     413A      4.728736   414A      4.758013   415A      4.769502  
     416A      4.795466   417A      4.807276   418A      4.823664  
     419A      4.854198   420A      4.866999   421A      4.890751  
     422A      4.900934   423A      4.914992   424A      4.918486  
     425A      4.929503   426A      4.950346   427A      4.960722  
     428A      4.977004   429A      4.988274   430A      4.990457  
     431A      5.023894   432A      5.042002   433A      5.049411  
     434A      5.074582   435A      5.092632   436A      5.112147  
     437A      5.141564   438A      5.151133   439A      5.178380  
     440A      5.187813   441A      5.194128   442A      5.203194  
     443A      5.242025   444A      5.245511   445A      5.272457  
     446A      5.309866   447A      5.346805   448A      5.354623  
     449A      5.363661   450A      5.394440   451A      5.400770  
     452A      5.421387   453A      5.435274   454A      5.458705  
     455A      5.466375   456A      5.486840   457A      5.504327  
     458A      5.518986   459A      5.527182   460A      5.560692  
     461A      5.574007   462A      5.588129   463A      5.597003  
     464A      5.599050   465A      5.630046   466A      5.656806  
     467A      5.672661   468A      5.691553   469A      5.708757  
     470A      5.728754   471A      5.735892   472A      5.769883  
     473A      5.802715   474A      5.820998   475A      5.867407  
     476A      5.892337   477A      5.947633   478A      5.983502  
     479A      5.999918   480A      6.006407   481A      6.037785  
     482A      6.079386   483A      6.099951   484A      6.122548  
     485A      6.183371   486A      6.194200   487A      6.213825  
     488A      6.230583   489A      6.263771   490A      6.284353  
     491A      6.290389   492A      6.329848   493A      6.405515  
     494A      6.458585   495A      6.558070   496A      6.681481  
     497A      6.720247   498A      6.808145   499A      6.824637  
     500A      6.858742   501A      6.874681   502A      6.905276  
     503A      6.952309   504A      6.970530   505A      7.004014  
     506A      7.089994   507A      7.123956   508A      7.140331  
     509A      7.193674   510A      7.291041   511A      7.345467  
     512A      7.377544   513A      7.448943   514A      7.522578  
     515A      7.645877   516A      7.775359   517A      7.827535  
     518A      7.839437   519A      7.848933   520A      7.870012  
     521A      7.888572   522A      7.905906   523A      7.918992  
     524A      7.983432   525A      8.158542   526A      8.179283  
     527A      8.207059   528A      8.230497   529A      8.306011  
     530A      8.336140   531A      8.420235   532A      8.589430  
     533A      8.596532   534A      8.883183   535A      9.041205  
     536A     10.010815   537A     10.119708   538A     10.356741  
     539A     10.383403   540A     10.432043   541A     10.790927  
     542A     11.077100   543A     12.076072   544A     12.406501  
     545A     13.298450   546A     14.150491   547A     16.173587  
     548A     17.983840   549A     18.910020   550A     52.987282  
     551A     54.178882   552A     66.665761  

    Final Occupation by Irrep:
              A 
    DOCC [    13 ]
    NA   [    13 ]
    NB   [    13 ]

  @DF-RHF Final Energy:  -154.14504173432158

   => Energetics <=

    Nuclear Repulsion Energy =             82.1459526029046572
    One-Electron Energy =                -372.1946039955864194
    Two-Electron Energy =                 135.9036096583602102
    Total Energy =                       -154.1450417343215804

Computation Completed


Properties will be evaluated at   0.000000,   0.000000,   0.000000 [a0]

Properties computed using the SCF density matrix


 Multipole Moments:

 ------------------------------------------------------------------------------------
     Multipole            Electronic (a.u.)      Nuclear  (a.u.)        Total (a.u.)
 ------------------------------------------------------------------------------------

 L = 1.  Multiply by 2.5417464519 to convert [e a0] to [Debye]
 Dipole X            :        116.1009538         -115.4955935            0.6053603
 Dipole Y            :         -0.2481918            0.5806240            0.3324323
 Dipole Z            :         -1.0881436            0.9145878           -0.1735559
 Magnitude           :                                                    0.7121053

 ------------------------------------------------------------------------------------

*** tstop() called on moses-razer at Sun Mar  2 02:20:50 2025
Module time:
	user time   =      93.27 seconds =       1.55 minutes
	system time =       1.30 seconds =       0.02 minutes
	total time  =         95 seconds =       1.58 minutes
Total time:
	user time   =     320.65 seconds =       5.34 minutes
	system time =       5.97 seconds =       0.10 minutes
	total time  =        328 seconds =       5.47 minutes
  Constructing Basis Sets for SAPT...

   => Loading Basis Set <=

    Name: (AUG-CC-PVTZ AUX)
    Role: RIFIT
    Keyword: DF_BASIS_SAPT
    atoms 1-2, 10-11 entry C          line   148 file /home/kchung25/anaconda3/envs/p415env/share/psi4/basis/aug-cc-pvtz-ri.gbs 
    atoms 3, 12      entry O          line   264 file /home/kchung25/anaconda3/envs/p415env/share/psi4/basis/aug-cc-pvtz-ri.gbs 
    atoms 4-9, 13-18 entry H          line    30 file /home/kchung25/anaconda3/envs/p415env/share/psi4/basis/aug-cc-pvtz-ri.gbs 

   => Loading Basis Set <=

    Name: (AUG-CC-PVTZ AUX)
    Role: JKFIT
    Keyword: DF_BASIS_ELST
    atoms 1-2, 10-11 entry C          line   162 file /home/kchung25/anaconda3/envs/p415env/share/psi4/basis/aug-cc-pvtz-jkfit.gbs 
    atoms 3, 12      entry O          line   286 file /home/kchung25/anaconda3/envs/p415env/share/psi4/basis/aug-cc-pvtz-jkfit.gbs 
    atoms 4-9, 13-18 entry H          line    70 file /home/kchung25/anaconda3/envs/p415env/share/psi4/basis/aug-cc-pvtz-jkfit.gbs 


  //>>>>>>>>>>>>>>>>>>>>>>>>>>>>>>>>>>>//
  //               SAPT2+              //
  //<<<<<<<<<<<<<<<<<<<<<<<<<<<<<<<<<<<//


*** tstart() called on moses-razer
*** at Sun Mar  2 02:20:50 2025

        SAPT2+  
    Ed Hohenstein
     6 June 2009

      Orbital Information
  --------------------------
    NSO        =       552
    NMO        =       552
    NRI        =      1188
    NOCC A     =        13
    NOCC B     =        13
    FOCC A     =         0
    FOCC B     =         0
    NVIR A     =       539
    NVIR B     =       539

    Estimated memory usage: 3939.5 MB

    Natural Orbital Cutoff:   1.000E-06
    Disp(T3) Truncation:            Yes
    CCD (vv|vv) Truncation:         Yes
    MBPT T2 Truncation:             Yes

    Monomer A: 307 virtual orbitals dropped
    Monomer B: 309 virtual orbitals dropped

    Elst10,r            =    -0.002793400152 [Eh]
    Exch10 (S^2)        =     0.005024930240 [Eh]
    Exch10              =     0.005041249508 [Eh]
    Ind20,r (A<-B)      =    -0.000322206902 [Eh]
    Ind20,r (B<-A)      =    -0.000983161957 [Eh]
    Ind20,r             =    -0.001305368858 [Eh]
    Exch-Ind20,r (A<-B) =     0.000212234987 [Eh]
    Exch-Ind20,r (B<-A) =     0.000778937870 [Eh]
    Exch-Ind20,r        =     0.000991172857 [Eh]
    Disp20              =    -0.004866422238 [Eh]
    Disp20 (NO)         =    -0.004297515562 [Eh]
    Exch-Disp20         =     0.000539863289 [Eh]
    Elst12,r            =    -0.000403852726 [Eh]
    Exch11              =     0.000059828521 [Eh]
    Exch12              =     0.000670858638 [Eh]
    Ind22               =    -0.000193100538 [Eh]
    Disp21              =     0.000144333545 [Eh]
    Disp22 (SDQ)        =     0.000149423583 [Eh]

    (i =   1 of  13)        240 seconds
    (i =   2 of  13)        476 seconds
    (i =   3 of  13)        716 seconds
    (i =   4 of  13)        951 seconds
    (i =   5 of  13)       1181 seconds
    (i =   6 of  13)       1432 seconds
    (i =   7 of  13)       1691 seconds
    (i =   8 of  13)       1931 seconds
    (i =   9 of  13)       2191 seconds
    (i =  10 of  13)       2431 seconds
    (i =  11 of  13)       2670 seconds
    (i =  12 of  13)       2968 seconds
    (i =  13 of  13)       3246 seconds

    Disp220 (T)         =    -0.000363343468 [Eh]

    (i =   1 of  13)        228 seconds
    (i =   2 of  13)        455 seconds
    (i =   3 of  13)        683 seconds
    (i =   4 of  13)        911 seconds
    (i =   5 of  13)       1139 seconds
    (i =   6 of  13)       1368 seconds
    (i =   7 of  13)       1597 seconds
    (i =   8 of  13)       1824 seconds
    (i =   9 of  13)       2040 seconds
    (i =  10 of  13)       2323 seconds
    (i =  11 of  13)       2682 seconds
    (i =  12 of  13)       2992 seconds
    (i =  13 of  13)       3317 seconds

    Disp202 (T)         =    -0.000306714994 [Eh]

    Disp22 (T)          =    -0.000670058462 [Eh]

    Est. Disp220 (T)    =    -0.000411443008 [Eh]
    Est. Disp202 (T)    =    -0.000347318037 [Eh]

    Est. Disp22 (T)     =    -0.000758761045 [Eh]

    SAPT Results 
  --------------------------------------------------------------------------------------------------------
    Electrostatics                 -3.19725288 [mEh]      -2.00630647 [kcal/mol]      -8.39438628 [kJ/mol]
      Elst10,r                     -2.79340015 [mEh]      -1.75288506 [kcal/mol]      -7.33407109 [kJ/mol]
      Elst12,r                     -0.40385273 [mEh]      -0.25342141 [kcal/mol]      -1.06031519 [kJ/mol]

    Exchange                        5.77193667 [mEh]       3.62194494 [kcal/mol]      15.15421763 [kJ/mol]
      Exch10                        5.04124951 [mEh]       3.16343183 [kcal/mol]      13.23579876 [kJ/mol]
      Exch10(S^2)                   5.02493024 [mEh]       3.15319133 [kcal/mol]      13.19295253 [kJ/mol]
      Exch11(S^2)                   0.05982852 [mEh]       0.03754296 [kcal/mol]       0.15707976 [kJ/mol]
      Exch12(S^2)                   0.67085864 [mEh]       0.42097015 [kcal/mol]       1.76133911 [kJ/mol]

    Induction                      -0.75661678 [mEh]      -0.47478420 [kcal/mol]      -1.98649708 [kJ/mol]
      Ind20,r                      -1.30536886 [mEh]      -0.81913133 [kcal/mol]      -3.42724547 [kJ/mol]
      Ind22                        -0.19310054 [mEh]      -0.12117242 [kcal/mol]      -0.50698539 [kJ/mol]
      Exch-Ind20,r                  0.99117286 [mEh]       0.62197036 [kcal/mol]       2.60232398 [kJ/mol]
      Exch-Ind22                    0.14662217 [mEh]       0.09200680 [kcal/mol]       0.38495645 [kJ/mol]
      delta HF,r (2)               -0.39594241 [mEh]      -0.24845761 [kcal/mol]      -1.03954665 [kJ/mol]

    Dispersion                     -4.79156287 [mEh]      -3.00675109 [kcal/mol]     -12.58024657 [kJ/mol]
      Disp20                       -4.86642224 [mEh]      -3.05372606 [kcal/mol]     -12.77678983 [kJ/mol]
      Disp21                        0.14433355 [mEh]       0.09057067 [kcal/mol]       0.37894767 [kJ/mol]
      Disp22 (SDQ)                  0.14942358 [mEh]       0.09376471 [kcal/mol]       0.39231156 [kJ/mol]
      Disp22 (T)                   -0.67005846 [mEh]      -0.42046803 [kcal/mol]      -1.75923825 [kJ/mol]
      Est. Disp22 (T)              -0.75876105 [mEh]      -0.47612974 [kcal/mol]      -1.99212685 [kJ/mol]
      Exch-Disp20                   0.53986329 [mEh]       0.33876933 [kcal/mol]       1.41741087 [kJ/mol]

  Total HF                          1.53771095 [mEh]       0.96492819 [kcal/mol]       4.03725953 [kJ/mol]
  Total SAPT0                      -2.78884800 [mEh]      -1.75002854 [kcal/mol]      -7.32211942 [kJ/mol]
  Total SAPT2                      -2.50849194 [mEh]      -1.57410246 [kcal/mol]      -6.58604468 [kJ/mol]
  Total SAPT2+                     -2.97349586 [mEh]      -1.86589682 [kcal/mol]      -7.80691229 [kJ/mol]

  Special recipe for scaled SAPT0 (see Manual):
    Electrostatics sSAPT0          -2.79340015 [mEh]      -1.75288506 [kcal/mol]      -7.33407109 [kJ/mol]
    Exchange sSAPT0                 5.04124951 [mEh]       3.16343183 [kcal/mol]      13.23579876 [kJ/mol]
    Induction sSAPT0               -0.70045003 [mEh]      -0.43953903 [kcal/mol]      -1.83903131 [kJ/mol]
    Dispersion sSAPT0              -4.32128197 [mEh]      -2.71164537 [kcal/mol]     -11.34552425 [kJ/mol]
  Total sSAPT0                     -2.77388265 [mEh]      -1.74063764 [kcal/mol]      -7.28282789 [kJ/mol]
  --------------------------------------------------------------------------------------------------------

*** tstop() called on moses-razer at Sun Mar  2 04:39:29 2025
Module time:
	user time   =    8195.99 seconds =     136.60 minutes
	system time =     118.38 seconds =       1.97 minutes
	total time  =       8319 seconds =     138.65 minutes
Total time:
	user time   =    8516.84 seconds =     141.95 minutes
	system time =     124.35 seconds =       2.07 minutes
	total time  =       8647 seconds =     144.12 minutes

    Psi4 stopped on: Sunday, 02 March 2025 04:39AM
    Psi4 wall time for execution: 2:24:07.45

*** Psi4 exiting successfully. Buy a developer a beer!
