
    -----------------------------------------------------------------------
          Psi4: An Open-Source Ab Initio Electronic Structure Package
                               Psi4 1.9 release

                         Git: Rev {} zzzzzzz 


    D. G. A. Smith, L. A. Burns, A. C. Simmonett, R. M. Parrish,
    M. C. Schieber, R. Galvelis, P. Kraus, H. Kruse, R. Di Remigio,
    A. Alenaizan, A. M. James, S. Lehtola, J. P. Misiewicz, M. Scheurer,
    R. A. Shaw, J. B. Schriber, Y. Xie, Z. L. Glick, D. A. Sirianni,
    J. S. O'Brien, J. M. Waldrop, A. Kumar, E. G. Hohenstein,
    B. P. Pritchard, B. R. Brooks, H. F. Schaefer III, A. Yu. Sokolov,
    K. Patkowski, A. E. DePrince III, U. Bozkaya, R. A. King,
    F. A. Evangelista, J. M. Turney, T. D. Crawford, C. D. Sherrill,
    J. Chem. Phys. 152(18) 184108 (2020). https://doi.org/10.1063/5.0006002

                            Additional Code Authors
    E. T. Seidl, C. L. Janssen, E. F. Valeev, M. L. Leininger,
    J. F. Gonthier, R. M. Richard, H. R. McAlexander, M. Saitow, X. Wang,
    P. Verma, M. H. Lechner, A. Jiang, S. Behnle, A. G. Heide,
    M. F. Herbst, and D. L. Poole

             Previous Authors, Complete List of Code Contributors,
                       and Citations for Specific Modules
    https://github.com/psi4/psi4/blob/master/codemeta.json
    https://github.com/psi4/psi4/graphs/contributors
    http://psicode.org/psi4manual/master/introduction.html#citing-psifour

    -----------------------------------------------------------------------


    Psi4 started on: Saturday, 01 March 2025 11:14PM

    Process ID: 200890
    Host:       moses-razer
    PSIDATADIR: /home/kchung25/anaconda3/envs/psi4_19/share/psi4
    Memory:     500.0 MiB
    Threads:    1
    
  ==> Input File <==

--------------------------------------------------------------------------
MEMORY 10 GB

molecule dimer {
0 1
C    1.670830  -1.097887  -0.461470
C    1.619645   0.181521   0.333312
O    2.674913   1.063326   0.017506
H    3.503479   0.593655   0.140571
H    0.813997  -1.730045  -0.219955
H    2.582489  -1.661151  -0.238303
H    1.663223  -0.884965  -1.533101
H    1.598567  -0.043374   1.409370
H    0.695258   0.724204   0.118711
--
0 1
C   -2.454579   1.119617  -0.140060
C   -2.011562  -0.288159  -0.447536
O   -1.418516  -0.922468   0.664397
H   -2.039041  -0.896367   1.397169
H   -2.877342   1.602135  -1.023446
H   -1.613294   1.720474   0.211940
H   -3.222641   1.124997   0.639218
H   -1.247577  -0.286816  -1.230912
H   -2.854302  -0.880165  -0.831960

units ang
no_reorient
no_com
symmetry c1
}

set {
basis        aug-cc-pVTZ
scf_type     df
}

energy("sapt2+")
--------------------------------------------------------------------------

  Memory set to   9.313 GiB by Python driver.

Scratch directory: /scratch/
   => Loading Basis Set <=

    Name: AUG-CC-PVTZ
    Role: ORBITAL
    Keyword: BASIS
    atoms 1-2, 10-11 entry C          line   239 file /home/kchung25/anaconda3/envs/p415env/share/psi4/basis/aug-cc-pvtz.gbs 
    atoms 3, 12      entry O          line   331 file /home/kchung25/anaconda3/envs/p415env/share/psi4/basis/aug-cc-pvtz.gbs 
    atoms 4-9, 13-18 entry H          line    40 file /home/kchung25/anaconda3/envs/p415env/share/psi4/basis/aug-cc-pvtz.gbs 

   => Loading Basis Set <=

    Name: AUG-CC-PVTZ
    Role: ORBITAL
    Keyword: BASIS
    atoms 1-2, 10-11 entry C          line   239 file /home/kchung25/anaconda3/envs/p415env/share/psi4/basis/aug-cc-pvtz.gbs 
    atoms 3, 12      entry O          line   331 file /home/kchung25/anaconda3/envs/p415env/share/psi4/basis/aug-cc-pvtz.gbs 
    atoms 4-9, 13-18 entry H          line    40 file /home/kchung25/anaconda3/envs/p415env/share/psi4/basis/aug-cc-pvtz.gbs 


  //>>>>>>>>>>>>>>>>>>>>>>>>>>>>>>>>>>>//
  //              Dimer HF             //
  //<<<<<<<<<<<<<<<<<<<<<<<<<<<<<<<<<<<//

   => Libint2 <=

    Primary   basis highest AM E, G, H:  5, 4, 3
    Auxiliary basis highest AM E, G, H:  6, 5, 4
    Onebody   basis highest AM E, G, H:  6, 5, 4
    Solid Harmonics ordering:            gaussian

*** tstart() called on moses-razer
*** at Sat Mar  1 23:14:55 2025

   => Loading Basis Set <=

    Name: AUG-CC-PVTZ
    Role: ORBITAL
    Keyword: BASIS
    atoms 1-2, 10-11 entry C          line   239 file /home/kchung25/anaconda3/envs/p415env/share/psi4/basis/aug-cc-pvtz.gbs 
    atoms 3, 12      entry O          line   331 file /home/kchung25/anaconda3/envs/p415env/share/psi4/basis/aug-cc-pvtz.gbs 
    atoms 4-9, 13-18 entry H          line    40 file /home/kchung25/anaconda3/envs/p415env/share/psi4/basis/aug-cc-pvtz.gbs 


         ---------------------------------------------------------
                                   SCF
               by Justin Turney, Rob Parrish, Andy Simmonett
                          and Daniel G. A. Smith
                              RHF Reference
                        1 Threads,   9536 MiB Core
         ---------------------------------------------------------

  ==> Geometry <==

    Molecular point group: c1
    Full point group: C1

    Geometry (in Angstrom), charge = 0, multiplicity = 1:

       Center              X                  Y                   Z               Mass       
    ------------   -----------------  -----------------  -----------------  -----------------
         C            1.670830000000    -1.097887000000    -0.461470000000    12.000000000000
         C            1.619645000000     0.181521000000     0.333312000000    12.000000000000
         O            2.674913000000     1.063326000000     0.017506000000    15.994914619570
         H            3.503479000000     0.593655000000     0.140571000000     1.007825032230
         H            0.813997000000    -1.730045000000    -0.219955000000     1.007825032230
         H            2.582489000000    -1.661151000000    -0.238303000000     1.007825032230
         H            1.663223000000    -0.884965000000    -1.533101000000     1.007825032230
         H            1.598567000000    -0.043374000000     1.409370000000     1.007825032230
         H            0.695258000000     0.724204000000     0.118711000000     1.007825032230
         C           -2.454579000000     1.119617000000    -0.140060000000    12.000000000000
         C           -2.011562000000    -0.288159000000    -0.447536000000    12.000000000000
         O           -1.418516000000    -0.922468000000     0.664397000000    15.994914619570
         H           -2.039041000000    -0.896367000000     1.397169000000     1.007825032230
         H           -2.877342000000     1.602135000000    -1.023446000000     1.007825032230
         H           -1.613294000000     1.720474000000     0.211940000000     1.007825032230
         H           -3.222641000000     1.124997000000     0.639218000000     1.007825032230
         H           -1.247577000000    -0.286816000000    -1.230912000000     1.007825032230
         H           -2.854302000000    -0.880165000000    -0.831960000000     1.007825032230

  Running in c1 symmetry.

  Rotational constants: A =      0.16524  B =      0.04037  C =      0.03571 [cm^-1]
  Rotational constants: A =   4953.89910  B =   1210.13316  C =   1070.47288 [MHz]
  Nuclear repulsion =  250.888770893641606

  Charge       = 0
  Multiplicity = 1
  Electrons    = 52
  Nalpha       = 26
  Nbeta        = 26

  ==> Algorithm <==

  SCF Algorithm Type is DF.
  DIIS enabled.
  MOM disabled.
  Fractional occupation disabled.
  Guess Type is SAD.
  Energy threshold   = 1.00e-08
  Density threshold  = 1.00e-08
  Integral threshold = 1.00e-12

  ==> Primary Basis <==

  Basis Set: AUG-CC-PVTZ
    Blend: AUG-CC-PVTZ
    Number of shells: 192
    Number of basis functions: 552
    Number of Cartesian functions: 630
    Spherical Harmonics?: true
    Max angular momentum: 3

   => Loading Basis Set <=

    Name: (AUG-CC-PVTZ AUX)
    Role: JKFIT
    Keyword: DF_BASIS_SCF
    atoms 1-2, 10-11 entry C          line   162 file /home/kchung25/anaconda3/envs/p415env/share/psi4/basis/aug-cc-pvtz-jkfit.gbs 
    atoms 3, 12      entry O          line   286 file /home/kchung25/anaconda3/envs/p415env/share/psi4/basis/aug-cc-pvtz-jkfit.gbs 
    atoms 4-9, 13-18 entry H          line    70 file /home/kchung25/anaconda3/envs/p415env/share/psi4/basis/aug-cc-pvtz-jkfit.gbs 

  ==> Integral Setup <==

  ==> DiskDFJK: Density-Fitted J/K Matrices <==

    J tasked:                  Yes
    K tasked:                  Yes
    wK tasked:                  No
    OpenMP threads:              1
    Integrals threads:           1
    Memory [MiB]:             7152
    Algorithm:                Core
    Integral Cache:           SAVE
    Schwarz Cutoff:          1E-12
    Fitting Condition:       1E-10

   => Auxiliary Basis Set <=

  Basis Set: (AUG-CC-PVTZ AUX)
    Blend: AUG-CC-PVTZ-JKFIT
    Number of shells: 348
    Number of basis functions: 1176
    Number of Cartesian functions: 1446
    Spherical Harmonics?: true
    Max angular momentum: 4

  Minimum eigenvalue in the overlap matrix is 7.8730891540E-06.
  Reciprocal condition number of the overlap matrix is 4.2540443715E-07.
    Using symmetric orthogonalization.

  ==> Pre-Iterations <==

  SCF Guess: Superposition of Atomic Densities via on-the-fly atomic UHF (no occupation information).

   -------------------------
    Irrep   Nso     Nmo    
   -------------------------
     A        552     552 
   -------------------------
    Total     552     552
   -------------------------

  ==> Iterations <==

                           Total Energy        Delta E     RMS |[F,P]|

   @DF-RHF iter SAD:  -307.04841625837190   -3.07048e+02   0.00000e+00 
   @DF-RHF iter   1:  -308.00772334834380   -9.59307e-01   1.31506e-03 ADIIS/DIIS
   @DF-RHF iter   2:  -308.23140176536589   -2.23678e-01   6.83979e-04 ADIIS/DIIS
   @DF-RHF iter   3:  -308.28525463475864   -5.38529e-02   1.18174e-04 ADIIS/DIIS
   @DF-RHF iter   4:  -308.28841296002759   -3.15833e-03   4.41065e-05 DIIS
   @DF-RHF iter   5:  -308.28875891847844   -3.45958e-04   8.71048e-06 DIIS
   @DF-RHF iter   6:  -308.28877932947296   -2.04110e-05   2.01166e-06 DIIS
   @DF-RHF iter   7:  -308.28878077823526   -1.44876e-06   5.81585e-07 DIIS
   @DF-RHF iter   8:  -308.28878088807795   -1.09843e-07   1.80861e-07 DIIS
   @DF-RHF iter   9:  -308.28878090043645   -1.23585e-08   4.66844e-08 DIIS
   @DF-RHF iter  10:  -308.28878090129365   -8.57199e-10   1.14608e-08 DIIS
   @DF-RHF iter  11:  -308.28878090132730   -3.36513e-11   4.68454e-09 DIIS
  Energy and wave function converged.


  ==> Post-Iterations <==

    Orbital Energies [Eh]
    ---------------------

    Doubly Occupied:                                                      

       1A    -20.561538     2A    -20.545422     3A    -11.278094  
       4A    -11.259606     5A    -11.221487     6A    -11.203072  
       7A     -1.368998     8A     -1.351683     9A     -1.018741  
      10A     -1.000938    11A     -0.853666    12A     -0.835359  
      13A     -0.694426    14A     -0.674606    15A     -0.633587  
      16A     -0.619761    17A     -0.609390    18A     -0.599811  
      19A     -0.549078    20A     -0.531410    21A     -0.530687  
      22A     -0.511421    23A     -0.486463    24A     -0.468451  
      25A     -0.448410    26A     -0.430869  

    Virtual:                                                              

      27A      0.027210    28A      0.035270    29A      0.036404  
      30A      0.039812    31A      0.051874    32A      0.053401  
      33A      0.054687    34A      0.063949    35A      0.068314  
      36A      0.078210    37A      0.083536    38A      0.089596  
      39A      0.109215    40A      0.118136    41A      0.123794  
      42A      0.126858    43A      0.130187    44A      0.133057  
      45A      0.135094    46A      0.141048    47A      0.147670  
      48A      0.154962    49A      0.156359    50A      0.161286  
      51A      0.175628    52A      0.180868    53A      0.183927  
      54A      0.191768    55A      0.207859    56A      0.209876  
      57A      0.212600    58A      0.218597    59A      0.233092  
      60A      0.237907    61A      0.244926    62A      0.251385  
      63A      0.265023    64A      0.270330    65A      0.281064  
      66A      0.285149    67A      0.290149    68A      0.302324  
      69A      0.304354    70A      0.310346    71A      0.315720  
      72A      0.325129    73A      0.330970    74A      0.334884  
      75A      0.342918    76A      0.346487    77A      0.353942  
      78A      0.358742    79A      0.360462    80A      0.364473  
      81A      0.370215    82A      0.379229    83A      0.385155  
      84A      0.388980    85A      0.391293    86A      0.394855  
      87A      0.401688    88A      0.405157    89A      0.416590  
      90A      0.419705    91A      0.424915    92A      0.429409  
      93A      0.431192    94A      0.437202    95A      0.444936  
      96A      0.448159    97A      0.455185    98A      0.458976  
      99A      0.462475   100A      0.468974   101A      0.470592  
     102A      0.474479   103A      0.479513   104A      0.487319  
     105A      0.495938   106A      0.498621   107A      0.506381  
     108A      0.510084   109A      0.517168   110A      0.527478  
     111A      0.532205   112A      0.535485   113A      0.540176  
     114A      0.541580   115A      0.550587   116A      0.560017  
     117A      0.564375   118A      0.568883   119A      0.581276  
     120A      0.584656   121A      0.590416   122A      0.601015  
     123A      0.612658   124A      0.622473   125A      0.634478  
     126A      0.638109   127A      0.648360   128A      0.652859  
     129A      0.663200   130A      0.672633   131A      0.678413  
     132A      0.695150   133A      0.708412   134A      0.715025  
     135A      0.729275   136A      0.740529   137A      0.752779  
     138A      0.779796   139A      0.781684   140A      0.791734  
     141A      0.800602   142A      0.810841   143A      0.813383  
     144A      0.825154   145A      0.831308   146A      0.838123  
     147A      0.846525   148A      0.853003   149A      0.856128  
     150A      0.861608   151A      0.866970   152A      0.875964  
     153A      0.881664   154A      0.887856   155A      0.897762  
     156A      0.901647   157A      0.911104   158A      0.912211  
     159A      0.923574   160A      0.931764   161A      0.935866  
     162A      0.938541   163A      0.947649   164A      0.949656  
     165A      0.967951   166A      0.972998   167A      0.986500  
     168A      0.987624   169A      0.997676   170A      0.999668  
     171A      1.009433   172A      1.014814   173A      1.015852  
     174A      1.020503   175A      1.033404   176A      1.046734  
     177A      1.050460   178A      1.055003   179A      1.060443  
     180A      1.072770   181A      1.077993   182A      1.084047  
     183A      1.092472   184A      1.101815   185A      1.104490  
     186A      1.114860   187A      1.124033   188A      1.125381  
     189A      1.130102   190A      1.137927   191A      1.143728  
     192A      1.150065   193A      1.159489   194A      1.165624  
     195A      1.170842   196A      1.178723   197A      1.193555  
     198A      1.195925   199A      1.206424   200A      1.210930  
     201A      1.216290   202A      1.223043   203A      1.227137  
     204A      1.235327   205A      1.241643   206A      1.263084  
     207A      1.276189   208A      1.278178   209A      1.288919  
     210A      1.291002   211A      1.308952   212A      1.315131  
     213A      1.318216   214A      1.327604   215A      1.332877  
     216A      1.345616   217A      1.358663   218A      1.372856  
     219A      1.380260   220A      1.386355   221A      1.392049  
     222A      1.397431   223A      1.415884   224A      1.422237  
     225A      1.442405   226A      1.446607   227A      1.453061  
     228A      1.464286   229A      1.472793   230A      1.479756  
     231A      1.488641   232A      1.501022   233A      1.512843  
     234A      1.517917   235A      1.544291   236A      1.558084  
     237A      1.567661   238A      1.574792   239A      1.578791  
     240A      1.596383   241A      1.606649   242A      1.616284  
     243A      1.626172   244A      1.640655   245A      1.646411  
     246A      1.654600   247A      1.669587   248A      1.678277  
     249A      1.684112   250A      1.687239   251A      1.697684  
     252A      1.705310   253A      1.710757   254A      1.719261  
     255A      1.726179   256A      1.736104   257A      1.747273  
     258A      1.750328   259A      1.766607   260A      1.772362  
     261A      1.774771   262A      1.790030   263A      1.792738  
     264A      1.810374   265A      1.816038   266A      1.823221  
     267A      1.842125   268A      1.855713   269A      1.862858  
     270A      1.878955   271A      1.888769   272A      1.891343  
     273A      1.893099   274A      1.912780   275A      1.924014  
     276A      1.934495   277A      1.950431   278A      1.966328  
     279A      1.979653   280A      1.988676   281A      2.006444  
     282A      2.009523   283A      2.019936   284A      2.026668  
     285A      2.034936   286A      2.041730   287A      2.061846  
     288A      2.078983   289A      2.086908   290A      2.089008  
     291A      2.112856   292A      2.123749   293A      2.146398  
     294A      2.158608   295A      2.167273   296A      2.178285  
     297A      2.188427   298A      2.203997   299A      2.214837  
     300A      2.236912   301A      2.241601   302A      2.244498  
     303A      2.264458   304A      2.275134   305A      2.285576  
     306A      2.310061   307A      2.324183   308A      2.336625  
     309A      2.348592   310A      2.362507   311A      2.379489  
     312A      2.404433   313A      2.424869   314A      2.442541  
     315A      2.458656   316A      2.478691   317A      2.497878  
     318A      2.519306   319A      2.555163   320A      2.601886  
     321A      2.617998   322A      2.635660   323A      2.661313  
     324A      2.679901   325A      2.699852   326A      2.714211  
     327A      2.761900   328A      2.786327   329A      2.816809  
     330A      2.831025   331A      2.856036   332A      2.868553  
     333A      2.877977   334A      2.919569   335A      2.931375  
     336A      2.954012   337A      2.998806   338A      3.012508  
     339A      3.028306   340A      3.042932   341A      3.055802  
     342A      3.090512   343A      3.115747   344A      3.152287  
     345A      3.202426   346A      3.216318   347A      3.229501  
     348A      3.236815   349A      3.260107   350A      3.319110  
     351A      3.400655   352A      3.432112   353A      3.446391  
     354A      3.468520   355A      3.493127   356A      3.501102  
     357A      3.519344   358A      3.520527   359A      3.527848  
     360A      3.586050   361A      3.607017   362A      3.621720  
     363A      3.641267   364A      3.649921   365A      3.665613  
     366A      3.675053   367A      3.680297   368A      3.700702  
     369A      3.712245   370A      3.727207   371A      3.739258  
     372A      3.764158   373A      3.767403   374A      3.778119  
     375A      3.798663   376A      3.804081   377A      3.819473  
     378A      3.843856   379A      3.847087   380A      3.859824  
     381A      3.882562   382A      3.892452   383A      3.917720  
     384A      3.930484   385A      3.939807   386A      3.960255  
     387A      3.972820   388A      3.977076   389A      3.992269  
     390A      4.000226   391A      4.013116   392A      4.020819  
     393A      4.039429   394A      4.053268   395A      4.068214  
     396A      4.077720   397A      4.099839   398A      4.106681  
     399A      4.111218   400A      4.124389   401A      4.142790  
     402A      4.154323   403A      4.163614   404A      4.178161  
     405A      4.190532   406A      4.201407   407A      4.216977  
     408A      4.237231   409A      4.244829   410A      4.255879  
     411A      4.271622   412A      4.288930   413A      4.308424  
     414A      4.347250   415A      4.368025   416A      4.373939  
     417A      4.392381   418A      4.404073   419A      4.412797  
     420A      4.429686   421A      4.472705   422A      4.487510  
     423A      4.504518   424A      4.525063   425A      4.556017  
     426A      4.568791   427A      4.589606   428A      4.595113  
     429A      4.605423   430A      4.614099   431A      4.625755  
     432A      4.651879   433A      4.672669   434A      4.690147  
     435A      4.726176   436A      4.729873   437A      4.747101  
     438A      4.764240   439A      4.773544   440A      4.806423  
     441A      4.815329   442A      4.823903   443A      4.848742  
     444A      4.854452   445A      4.878545   446A      4.899261  
     447A      4.907724   448A      4.914941   449A      4.942548  
     450A      4.950649   451A      4.960694   452A      4.985248  
     453A      5.002882   454A      5.010068   455A      5.014363  
     456A      5.027599   457A      5.055565   458A      5.065895  
     459A      5.079850   460A      5.099763   461A      5.142163  
     462A      5.158291   463A      5.160057   464A      5.188786  
     465A      5.197880   466A      5.221720   467A      5.226126  
     468A      5.245505   469A      5.274604   470A      5.300439  
     471A      5.311564   472A      5.316264   473A      5.372861  
     474A      5.387695   475A      5.400145   476A      5.412911  
     477A      5.437146   478A      5.458216   479A      5.484287  
     480A      5.500548   481A      5.526854   482A      5.547882  
     483A      5.558009   484A      5.571197   485A      5.589081  
     486A      5.598810   487A      5.631656   488A      5.644899  
     489A      5.662161   490A      5.679623   491A      5.699531  
     492A      5.713418   493A      5.736051   494A      5.763783  
     495A      5.791431   496A      5.834807   497A      5.869845  
     498A      5.905307   499A      6.003237   500A      6.046799  
     501A      6.102212   502A      6.110688   503A      6.137801  
     504A      6.164225   505A      6.202192   506A      6.217674  
     507A      6.240694   508A      6.261044   509A      6.278212  
     510A      6.287660   511A      6.309254   512A      6.319294  
     513A      6.426753   514A      6.465678   515A      6.717695  
     516A      6.734755   517A      6.747607   518A      6.772459  
     519A      6.795337   520A      6.848665   521A      6.886434  
     522A      6.922893   523A      6.969557   524A      6.981278  
     525A      7.004590   526A      7.045268   527A      7.144114  
     528A      7.162932   529A      7.360128   530A      7.371960  
     531A      7.398038   532A      7.401187   533A      7.492898  
     534A      7.518037   535A      7.538922   536A      7.558640  
     537A      7.674520   538A      7.745626   539A      7.861915  
     540A      7.870279   541A      7.944730   542A      7.974025  
     543A      8.267818   544A      8.289890   545A      8.612248  
     546A      8.671763   547A     16.342370   548A     16.407997  
     549A     17.801050   550A     18.060356   551A     18.679687  
     552A     18.992328  

    Final Occupation by Irrep:
              A 
    DOCC [    26 ]
    NA   [    26 ]
    NB   [    26 ]

  @DF-RHF Final Energy:  -308.28878090132730

   => Energetics <=

    Nuclear Repulsion Energy =            250.8887708936416061
    One-Electron Energy =                -917.7811532466114386
    Two-Electron Energy =                 358.6036014516425894
    Total Energy =                       -308.2887809013272999

Computation Completed


Properties will be evaluated at   0.000000,   0.000000,   0.000000 [a0]

Properties computed using the SCF density matrix


 Multipole Moments:

 ------------------------------------------------------------------------------------
     Multipole            Electronic (a.u.)      Nuclear  (a.u.)        Total (a.u.)
 ------------------------------------------------------------------------------------

 L = 1.  Multiply by 2.5417464519 to convert [e a0] to [Debye]
 Dipole X            :         -0.7378179           -0.0000076           -0.7378254
 Dipole Y            :         -0.3866233           -0.0000038           -0.3866271
 Dipole Z            :          0.1900913            0.0000038            0.1900951
 Magnitude           :                                                    0.8544021

 ------------------------------------------------------------------------------------

*** tstop() called on moses-razer at Sat Mar  1 23:17:26 2025
Module time:
	user time   =     147.56 seconds =       2.46 minutes
	system time =       3.70 seconds =       0.06 minutes
	total time  =        151 seconds =       2.52 minutes
Total time:
	user time   =     147.56 seconds =       2.46 minutes
	system time =       3.70 seconds =       0.06 minutes
	total time  =        151 seconds =       2.52 minutes

  //>>>>>>>>>>>>>>>>>>>>>>>>>>>>>>>>>>>//
  //            Monomer A HF           //
  //<<<<<<<<<<<<<<<<<<<<<<<<<<<<<<<<<<<//

   => Libint2 <=

    Primary   basis highest AM E, G, H:  5, 4, 3
    Auxiliary basis highest AM E, G, H:  6, 5, 4
    Onebody   basis highest AM E, G, H:  6, 5, 4
    Solid Harmonics ordering:            gaussian

*** tstart() called on moses-razer
*** at Sat Mar  1 23:17:26 2025

   => Loading Basis Set <=

    Name: AUG-CC-PVTZ
    Role: ORBITAL
    Keyword: BASIS
    atoms 1-2, 10-11 entry C          line   239 file /home/kchung25/anaconda3/envs/p415env/share/psi4/basis/aug-cc-pvtz.gbs 
    atoms 3, 12      entry O          line   331 file /home/kchung25/anaconda3/envs/p415env/share/psi4/basis/aug-cc-pvtz.gbs 
    atoms 4-9, 13-18 entry H          line    40 file /home/kchung25/anaconda3/envs/p415env/share/psi4/basis/aug-cc-pvtz.gbs 


         ---------------------------------------------------------
                                   SCF
               by Justin Turney, Rob Parrish, Andy Simmonett
                          and Daniel G. A. Smith
                              RHF Reference
                        1 Threads,   9536 MiB Core
         ---------------------------------------------------------

  ==> Geometry <==

    Molecular point group: c1
    Full point group: C1

    Geometry (in Angstrom), charge = 0, multiplicity = 1:

       Center              X                  Y                   Z               Mass       
    ------------   -----------------  -----------------  -----------------  -----------------
         C            1.670830000000    -1.097887000000    -0.461470000000    12.000000000000
         C            1.619645000000     0.181521000000     0.333312000000    12.000000000000
         O            2.674913000000     1.063326000000     0.017506000000    15.994914619570
         H            3.503479000000     0.593655000000     0.140571000000     1.007825032230
         H            0.813997000000    -1.730045000000    -0.219955000000     1.007825032230
         H            2.582489000000    -1.661151000000    -0.238303000000     1.007825032230
         H            1.663223000000    -0.884965000000    -1.533101000000     1.007825032230
         H            1.598567000000    -0.043374000000     1.409370000000     1.007825032230
         H            0.695258000000     0.724204000000     0.118711000000     1.007825032230
      Gh(C)          -2.454579000000     1.119617000000    -0.140060000000    12.000000000000
      Gh(C)          -2.011562000000    -0.288159000000    -0.447536000000    12.000000000000
      Gh(O)          -1.418516000000    -0.922468000000     0.664397000000    15.994914619570
      Gh(H)          -2.039041000000    -0.896367000000     1.397169000000     1.007825032230
      Gh(H)          -2.877342000000     1.602135000000    -1.023446000000     1.007825032230
      Gh(H)          -1.613294000000     1.720474000000     0.211940000000     1.007825032230
      Gh(H)          -3.222641000000     1.124997000000     0.639218000000     1.007825032230
      Gh(H)          -1.247577000000    -0.286816000000    -1.230912000000     1.007825032230
      Gh(H)          -2.854302000000    -0.880165000000    -0.831960000000     1.007825032230

  Running in c1 symmetry.

  Rotational constants: A =      0.16524  B =      0.04037  C =      0.03571 [cm^-1]
  Rotational constants: A =   4953.89910  B =   1210.13316  C =   1070.47288 [MHz]
  Nuclear repulsion =   82.139314978433745

  Charge       = 0
  Multiplicity = 1
  Electrons    = 26
  Nalpha       = 13
  Nbeta        = 13

  ==> Algorithm <==

  SCF Algorithm Type is DF.
  DIIS enabled.
  MOM disabled.
  Fractional occupation disabled.
  Guess Type is SAD.
  Energy threshold   = 1.00e-08
  Density threshold  = 1.00e-08
  Integral threshold = 1.00e-12

  ==> Primary Basis <==

  Basis Set: AUG-CC-PVTZ
    Blend: AUG-CC-PVTZ
    Number of shells: 192
    Number of basis functions: 552
    Number of Cartesian functions: 630
    Spherical Harmonics?: true
    Max angular momentum: 3

   => Loading Basis Set <=

    Name: (AUG-CC-PVTZ AUX)
    Role: JKFIT
    Keyword: DF_BASIS_SCF
    atoms 1-2, 10-11 entry C          line   162 file /home/kchung25/anaconda3/envs/p415env/share/psi4/basis/aug-cc-pvtz-jkfit.gbs 
    atoms 3, 12      entry O          line   286 file /home/kchung25/anaconda3/envs/p415env/share/psi4/basis/aug-cc-pvtz-jkfit.gbs 
    atoms 4-9, 13-18 entry H          line    70 file /home/kchung25/anaconda3/envs/p415env/share/psi4/basis/aug-cc-pvtz-jkfit.gbs 

  ==> Integral Setup <==

  ==> DiskDFJK: Density-Fitted J/K Matrices <==

    J tasked:                  Yes
    K tasked:                  Yes
    wK tasked:                  No
    OpenMP threads:              1
    Integrals threads:           1
    Memory [MiB]:             7152
    Algorithm:                Core
    Integral Cache:           LOAD
    Schwarz Cutoff:          1E-12
    Fitting Condition:       1E-10

   => Auxiliary Basis Set <=

  Basis Set: (AUG-CC-PVTZ AUX)
    Blend: AUG-CC-PVTZ-JKFIT
    Number of shells: 348
    Number of basis functions: 1176
    Number of Cartesian functions: 1446
    Spherical Harmonics?: true
    Max angular momentum: 4

  Minimum eigenvalue in the overlap matrix is 7.8730891540E-06.
  Reciprocal condition number of the overlap matrix is 4.2540443715E-07.
    Using symmetric orthogonalization.

  ==> Pre-Iterations <==

  SCF Guess: Superposition of Atomic Densities via on-the-fly atomic UHF (no occupation information).

   -------------------------
    Irrep   Nso     Nmo    
   -------------------------
     A        552     552 
   -------------------------
    Total     552     552
   -------------------------

  ==> Iterations <==

                           Total Energy        Delta E     RMS |[F,P]|

   @DF-RHF iter SAD:  -153.45726380688910   -1.53457e+02   0.00000e+00 
   @DF-RHF iter   1:  -154.00370133624193   -5.46438e-01   9.36564e-04 ADIIS/DIIS
   @DF-RHF iter   2:  -154.11546567276616   -1.11764e-01   4.93928e-04 ADIIS/DIIS
   @DF-RHF iter   3:  -154.14325026869443   -2.77846e-02   8.37716e-05 DIIS
   @DF-RHF iter   4:  -154.14482424454005   -1.57398e-03   3.20548e-05 DIIS
   @DF-RHF iter   5:  -154.14500980211449   -1.85558e-04   6.21448e-06 DIIS
   @DF-RHF iter   6:  -154.14502005948589   -1.02574e-05   1.42414e-06 DIIS
   @DF-RHF iter   7:  -154.14502079290679   -7.33421e-07   4.04860e-07 DIIS
   @DF-RHF iter   8:  -154.14502084767287   -5.47661e-08   1.28205e-07 DIIS
   @DF-RHF iter   9:  -154.14502085381184   -6.13898e-09   3.29123e-08 DIIS
   @DF-RHF iter  10:  -154.14502085424056   -4.28713e-10   6.28181e-09 DIIS
  Energy and wave function converged.


  ==> Post-Iterations <==

    Orbital Energies [Eh]
    ---------------------

    Doubly Occupied:                                                      

       1A    -20.555789     2A    -11.273278     3A    -11.218835  
       4A     -1.361993     5A     -1.015230     6A     -0.848323  
       7A     -0.686311     8A     -0.626404     9A     -0.612803  
      10A     -0.543712    11A     -0.527551    12A     -0.481172  
      13A     -0.442673  

    Virtual:                                                              

      14A      0.021679    15A      0.031196    16A      0.036198  
      17A      0.037806    18A      0.050416    19A      0.051173  
      20A      0.054031    21A      0.065418    22A      0.065673  
      23A      0.075733    24A      0.077649    25A      0.090016  
      26A      0.095156    27A      0.107921    28A      0.111746  
      29A      0.117922    30A      0.119956    31A      0.127686  
      32A      0.131511    33A      0.136644    34A      0.139009  
      35A      0.147561    36A      0.150391    37A      0.157345  
      38A      0.163736    39A      0.170873    40A      0.181292  
      41A      0.190264    42A      0.194187    43A      0.203943  
      44A      0.213028    45A      0.217333    46A      0.222301  
      47A      0.231388    48A      0.242120    49A      0.249687  
      50A      0.254575    51A      0.265853    52A      0.270117  
      53A      0.274095    54A      0.280294    55A      0.292510  
      56A      0.296434    57A      0.304709    58A      0.309191  
      59A      0.317902    60A      0.324535    61A      0.329244  
      62A      0.332014    63A      0.336941    64A      0.342330  
      65A      0.350363    66A      0.354420    67A      0.359490  
      68A      0.366933    69A      0.371434    70A      0.376566  
      71A      0.382257    72A      0.387812    73A      0.391756  
      74A      0.396287    75A      0.402568    76A      0.409765  
      77A      0.416236    78A      0.417608    79A      0.423756  
      80A      0.425597    81A      0.434223    82A      0.436490  
      83A      0.441575    84A      0.452899    85A      0.461445  
      86A      0.467138    87A      0.473722    88A      0.476270  
      89A      0.485271    90A      0.488030    91A      0.497513  
      92A      0.500108    93A      0.508132    94A      0.511684  
      95A      0.513110    96A      0.521310    97A      0.532719  
      98A      0.537559    99A      0.539244   100A      0.545374  
     101A      0.548774   102A      0.558077   103A      0.565872  
     104A      0.574516   105A      0.582370   106A      0.592984  
     107A      0.599126   108A      0.605411   109A      0.610935  
     110A      0.616025   111A      0.626025   112A      0.642736  
     113A      0.644670   114A      0.650183   115A      0.656320  
     116A      0.666951   117A      0.676139   118A      0.681306  
     119A      0.691479   120A      0.700755   121A      0.707150  
     122A      0.710947   123A      0.721271   124A      0.736698  
     125A      0.748340   126A      0.755464   127A      0.775274  
     128A      0.787019   129A      0.792933   130A      0.807826  
     131A      0.813903   132A      0.818990   133A      0.828426  
     134A      0.838372   135A      0.845967   136A      0.862744  
     137A      0.874729   138A      0.881392   139A      0.889373  
     140A      0.896285   141A      0.898540   142A      0.911035  
     143A      0.925755   144A      0.931813   145A      0.942285  
     146A      0.945355   147A      0.953013   148A      0.960734  
     149A      0.969831   150A      0.983366   151A      0.987835  
     152A      0.992417   153A      1.007306   154A      1.007842  
     155A      1.014255   156A      1.018912   157A      1.029183  
     158A      1.032377   159A      1.046979   160A      1.050834  
     161A      1.053428   162A      1.060800   163A      1.069795  
     164A      1.076805   165A      1.086493   166A      1.088889  
     167A      1.092015   168A      1.106505   169A      1.113661  
     170A      1.117433   171A      1.119687   172A      1.129337  
     173A      1.133347   174A      1.148543   175A      1.155330  
     176A      1.156652   177A      1.165049   178A      1.167881  
     179A      1.173410   180A      1.181896   181A      1.188282  
     182A      1.192300   183A      1.210867   184A      1.213898  
     185A      1.216054   186A      1.226528   187A      1.234051  
     188A      1.238762   189A      1.240386   190A      1.248906  
     191A      1.261616   192A      1.266696   193A      1.279105  
     194A      1.285528   195A      1.289136   196A      1.301494  
     197A      1.315055   198A      1.323479   199A      1.336347  
     200A      1.339268   201A      1.346949   202A      1.351793  
     203A      1.365696   204A      1.369413   205A      1.377047  
     206A      1.384895   207A      1.388780   208A      1.396727  
     209A      1.412986   210A      1.416418   211A      1.434165  
     212A      1.441213   213A      1.452008   214A      1.458737  
     215A      1.465644   216A      1.485667   217A      1.489554  
     218A      1.494978   219A      1.503383   220A      1.509915  
     221A      1.521462   222A      1.530112   223A      1.550847  
     224A      1.555041   225A      1.570705   226A      1.578774  
     227A      1.592028   228A      1.599896   229A      1.611695  
     230A      1.622190   231A      1.634704   232A      1.641295  
     233A      1.656917   234A      1.658838   235A      1.679118  
     236A      1.686801   237A      1.693983   238A      1.713712  
     239A      1.717990   240A      1.721624   241A      1.734987  
     242A      1.751046   243A      1.752352   244A      1.759030  
     245A      1.778559   246A      1.785150   247A      1.800824  
     248A      1.803008   249A      1.827786   250A      1.832721  
     251A      1.846592   252A      1.855779   253A      1.870806  
     254A      1.877082   255A      1.891255   256A      1.894072  
     257A      1.912523   258A      1.935801   259A      1.943799  
     260A      1.950277   261A      1.973297   262A      1.982176  
     263A      1.984433   264A      1.993514   265A      2.004399  
     266A      2.018908   267A      2.029056   268A      2.037495  
     269A      2.048314   270A      2.058246   271A      2.080095  
     272A      2.092059   273A      2.102648   274A      2.115271  
     275A      2.122810   276A      2.139197   277A      2.154427  
     278A      2.165197   279A      2.180583   280A      2.185879  
     281A      2.193913   282A      2.207391   283A      2.212348  
     284A      2.225430   285A      2.237651   286A      2.250910  
     287A      2.258348   288A      2.285486   289A      2.291919  
     290A      2.313897   291A      2.321173   292A      2.331408  
     293A      2.356562   294A      2.367228   295A      2.380287  
     296A      2.396753   297A      2.411352   298A      2.445701  
     299A      2.465522   300A      2.472907   301A      2.480741  
     302A      2.497943   303A      2.528388   304A      2.555306  
     305A      2.580709   306A      2.607415   307A      2.625088  
     308A      2.639849   309A      2.660504   310A      2.677597  
     311A      2.690072   312A      2.722776   313A      2.734535  
     314A      2.754483   315A      2.769612   316A      2.774827  
     317A      2.807859   318A      2.829429   319A      2.834832  
     320A      2.854638   321A      2.881518   322A      2.892740  
     323A      2.921585   324A      2.934159   325A      2.939024  
     326A      2.974253   327A      3.009424   328A      3.057480  
     329A      3.058690   330A      3.097793   331A      3.115832  
     332A      3.132756   333A      3.168587   334A      3.195936  
     335A      3.237561   336A      3.256007   337A      3.310507  
     338A      3.343269   339A      3.354498   340A      3.377644  
     341A      3.440529   342A      3.463504   343A      3.496573  
     344A      3.515944   345A      3.543394   346A      3.548669  
     347A      3.604986   348A      3.615707   349A      3.630165  
     350A      3.653255   351A      3.669353   352A      3.673418  
     353A      3.695496   354A      3.733461   355A      3.753171  
     356A      3.786182   357A      3.816247   358A      3.817875  
     359A      3.841721   360A      3.867022   361A      3.887870  
     362A      3.912943   363A      3.919609   364A      3.941677  
     365A      3.972563   366A      3.976850   367A      4.000931  
     368A      4.016654   369A      4.035983   370A      4.045893  
     371A      4.069766   372A      4.116852   373A      4.126482  
     374A      4.131185   375A      4.150615   376A      4.158927  
     377A      4.170012   378A      4.184480   379A      4.198417  
     380A      4.209702   381A      4.227878   382A      4.235199  
     383A      4.264094   384A      4.282591   385A      4.298010  
     386A      4.332986   387A      4.344768   388A      4.346432  
     389A      4.369556   390A      4.375522   391A      4.383402  
     392A      4.398030   393A      4.431754   394A      4.465097  
     395A      4.472620   396A      4.490888   397A      4.506016  
     398A      4.512701   399A      4.547239   400A      4.574299  
     401A      4.575215   402A      4.593284   403A      4.607021  
     404A      4.619048   405A      4.625031   406A      4.647691  
     407A      4.657988   408A      4.667086   409A      4.689461  
     410A      4.711798   411A      4.719368   412A      4.732627  
     413A      4.734382   414A      4.765801   415A      4.774928  
     416A      4.803164   417A      4.807575   418A      4.852712  
     419A      4.864464   420A      4.874206   421A      4.885430  
     422A      4.895367   423A      4.916489   424A      4.938648  
     425A      4.953871   426A      4.970381   427A      4.985079  
     428A      4.989413   429A      5.004928   430A      5.028102  
     431A      5.044933   432A      5.047086   433A      5.060070  
     434A      5.076516   435A      5.093101   436A      5.142931  
     437A      5.158705   438A      5.162548   439A      5.188170  
     440A      5.202634   441A      5.209807   442A      5.234484  
     443A      5.259902   444A      5.280972   445A      5.301828  
     446A      5.321185   447A      5.340962   448A      5.367686  
     449A      5.379444   450A      5.392042   451A      5.406880  
     452A      5.414071   453A      5.430746   454A      5.449387  
     455A      5.498085   456A      5.504019   457A      5.512040  
     458A      5.532264   459A      5.554667   460A      5.560931  
     461A      5.573215   462A      5.598561   463A      5.614686  
     464A      5.634327   465A      5.649910   466A      5.665449  
     467A      5.673352   468A      5.695549   469A      5.697580  
     470A      5.729088   471A      5.751179   472A      5.765430  
     473A      5.784944   474A      5.813686   475A      5.871523  
     476A      5.888572   477A      5.908438   478A      5.968479  
     479A      6.008661   480A      6.046481   481A      6.063534  
     482A      6.109619   483A      6.122116   484A      6.168845  
     485A      6.181009   486A      6.190452   487A      6.232654  
     488A      6.241358   489A      6.252496   490A      6.288816  
     491A      6.313066   492A      6.380152   493A      6.446799  
     494A      6.476938   495A      6.536449   496A      6.708357  
     497A      6.734385   498A      6.789162   499A      6.836506  
     500A      6.861567   501A      6.909110   502A      6.958696  
     503A      6.968192   504A      6.985774   505A      7.018182  
     506A      7.092756   507A      7.131183   508A      7.156575  
     509A      7.220654   510A      7.351056   511A      7.384901  
     512A      7.390807   513A      7.482717   514A      7.538181  
     515A      7.662196   516A      7.788440   517A      7.815435  
     518A      7.845624   519A      7.854139   520A      7.869572  
     521A      7.919874   522A      7.933622   523A      7.964163  
     524A      8.030340   525A      8.128687   526A      8.160005  
     527A      8.254670   528A      8.277079   529A      8.284942  
     530A      8.365721   531A      8.401291   532A      8.598627  
     533A      8.614613   534A      8.916118   535A      9.026676  
     536A     10.043279   537A     10.124256   538A     10.243260  
     539A     10.390126   540A     10.658980   541A     10.735976  
     542A     11.068728   543A     12.022835   544A     12.503589  
     545A     13.334498   546A     14.117052   547A     16.333549  
     548A     18.042884   549A     18.929856   550A     52.958424  
     551A     54.458369   552A     67.016057  

    Final Occupation by Irrep:
              A 
    DOCC [    13 ]
    NA   [    13 ]
    NB   [    13 ]

  @DF-RHF Final Energy:  -154.14502085424056

   => Energetics <=

    Nuclear Repulsion Energy =             82.1393149784337453
    One-Electron Energy =                -372.1805185578973578
    Two-Electron Energy =                 135.8961827252230705
    Total Energy =                       -154.1450208542405562

Computation Completed


Properties will be evaluated at   0.000000,   0.000000,   0.000000 [a0]

Properties computed using the SCF density matrix


 Multipole Moments:

 ------------------------------------------------------------------------------------
     Multipole            Electronic (a.u.)      Nuclear  (a.u.)        Total (a.u.)
 ------------------------------------------------------------------------------------

 L = 1.  Multiply by 2.5417464519 to convert [e a0] to [Debye]
 Dipole X            :        -98.2348023           98.2641844            0.0293821
 Dipole Y            :         -0.7046645            0.0127292           -0.6919353
 Dipole Z            :          1.9761937           -1.7982766            0.1779171
 Magnitude           :                                                    0.7150470

 ------------------------------------------------------------------------------------

*** tstop() called on moses-razer at Sat Mar  1 23:19:04 2025
Module time:
	user time   =      96.12 seconds =       1.60 minutes
	system time =       1.39 seconds =       0.02 minutes
	total time  =         98 seconds =       1.63 minutes
Total time:
	user time   =     243.68 seconds =       4.06 minutes
	system time =       5.09 seconds =       0.08 minutes
	total time  =        249 seconds =       4.15 minutes

  //>>>>>>>>>>>>>>>>>>>>>>>>>>>>>>>>>>>//
  //            Monomer B HF           //
  //<<<<<<<<<<<<<<<<<<<<<<<<<<<<<<<<<<<//

   => Libint2 <=

    Primary   basis highest AM E, G, H:  5, 4, 3
    Auxiliary basis highest AM E, G, H:  6, 5, 4
    Onebody   basis highest AM E, G, H:  6, 5, 4
    Solid Harmonics ordering:            gaussian

*** tstart() called on moses-razer
*** at Sat Mar  1 23:19:04 2025

   => Loading Basis Set <=

    Name: AUG-CC-PVTZ
    Role: ORBITAL
    Keyword: BASIS
    atoms 1-2, 10-11 entry C          line   239 file /home/kchung25/anaconda3/envs/p415env/share/psi4/basis/aug-cc-pvtz.gbs 
    atoms 3, 12      entry O          line   331 file /home/kchung25/anaconda3/envs/p415env/share/psi4/basis/aug-cc-pvtz.gbs 
    atoms 4-9, 13-18 entry H          line    40 file /home/kchung25/anaconda3/envs/p415env/share/psi4/basis/aug-cc-pvtz.gbs 


         ---------------------------------------------------------
                                   SCF
               by Justin Turney, Rob Parrish, Andy Simmonett
                          and Daniel G. A. Smith
                              RHF Reference
                        1 Threads,   9536 MiB Core
         ---------------------------------------------------------

  ==> Geometry <==

    Molecular point group: c1
    Full point group: C1

    Geometry (in Angstrom), charge = 0, multiplicity = 1:

       Center              X                  Y                   Z               Mass       
    ------------   -----------------  -----------------  -----------------  -----------------
      Gh(C)           1.670830000000    -1.097887000000    -0.461470000000    12.000000000000
      Gh(C)           1.619645000000     0.181521000000     0.333312000000    12.000000000000
      Gh(O)           2.674913000000     1.063326000000     0.017506000000    15.994914619570
      Gh(H)           3.503479000000     0.593655000000     0.140571000000     1.007825032230
      Gh(H)           0.813997000000    -1.730045000000    -0.219955000000     1.007825032230
      Gh(H)           2.582489000000    -1.661151000000    -0.238303000000     1.007825032230
      Gh(H)           1.663223000000    -0.884965000000    -1.533101000000     1.007825032230
      Gh(H)           1.598567000000    -0.043374000000     1.409370000000     1.007825032230
      Gh(H)           0.695258000000     0.724204000000     0.118711000000     1.007825032230
         C           -2.454579000000     1.119617000000    -0.140060000000    12.000000000000
         C           -2.011562000000    -0.288159000000    -0.447536000000    12.000000000000
         O           -1.418516000000    -0.922468000000     0.664397000000    15.994914619570
         H           -2.039041000000    -0.896367000000     1.397169000000     1.007825032230
         H           -2.877342000000     1.602135000000    -1.023446000000     1.007825032230
         H           -1.613294000000     1.720474000000     0.211940000000     1.007825032230
         H           -3.222641000000     1.124997000000     0.639218000000     1.007825032230
         H           -1.247577000000    -0.286816000000    -1.230912000000     1.007825032230
         H           -2.854302000000    -0.880165000000    -0.831960000000     1.007825032230

  Running in c1 symmetry.

  Rotational constants: A =      0.16524  B =      0.04037  C =      0.03571 [cm^-1]
  Rotational constants: A =   4953.89910  B =   1210.13316  C =   1070.47288 [MHz]
  Nuclear repulsion =   82.142576002456835

  Charge       = 0
  Multiplicity = 1
  Electrons    = 26
  Nalpha       = 13
  Nbeta        = 13

  ==> Algorithm <==

  SCF Algorithm Type is DF.
  DIIS enabled.
  MOM disabled.
  Fractional occupation disabled.
  Guess Type is SAD.
  Energy threshold   = 1.00e-08
  Density threshold  = 1.00e-08
  Integral threshold = 1.00e-12

  ==> Primary Basis <==

  Basis Set: AUG-CC-PVTZ
    Blend: AUG-CC-PVTZ
    Number of shells: 192
    Number of basis functions: 552
    Number of Cartesian functions: 630
    Spherical Harmonics?: true
    Max angular momentum: 3

   => Loading Basis Set <=

    Name: (AUG-CC-PVTZ AUX)
    Role: JKFIT
    Keyword: DF_BASIS_SCF
    atoms 1-2, 10-11 entry C          line   162 file /home/kchung25/anaconda3/envs/p415env/share/psi4/basis/aug-cc-pvtz-jkfit.gbs 
    atoms 3, 12      entry O          line   286 file /home/kchung25/anaconda3/envs/p415env/share/psi4/basis/aug-cc-pvtz-jkfit.gbs 
    atoms 4-9, 13-18 entry H          line    70 file /home/kchung25/anaconda3/envs/p415env/share/psi4/basis/aug-cc-pvtz-jkfit.gbs 

  ==> Integral Setup <==

  ==> DiskDFJK: Density-Fitted J/K Matrices <==

    J tasked:                  Yes
    K tasked:                  Yes
    wK tasked:                  No
    OpenMP threads:              1
    Integrals threads:           1
    Memory [MiB]:             7152
    Algorithm:                Core
    Integral Cache:           LOAD
    Schwarz Cutoff:          1E-12
    Fitting Condition:       1E-10

   => Auxiliary Basis Set <=

  Basis Set: (AUG-CC-PVTZ AUX)
    Blend: AUG-CC-PVTZ-JKFIT
    Number of shells: 348
    Number of basis functions: 1176
    Number of Cartesian functions: 1446
    Spherical Harmonics?: true
    Max angular momentum: 4

  Minimum eigenvalue in the overlap matrix is 7.8730891540E-06.
  Reciprocal condition number of the overlap matrix is 4.2540443716E-07.
    Using symmetric orthogonalization.

  ==> Pre-Iterations <==

  SCF Guess: Superposition of Atomic Densities via on-the-fly atomic UHF (no occupation information).

   -------------------------
    Irrep   Nso     Nmo    
   -------------------------
     A        552     552 
   -------------------------
    Total     552     552
   -------------------------

  ==> Iterations <==

                           Total Energy        Delta E     RMS |[F,P]|

   @DF-RHF iter SAD:  -153.45519701180754   -1.53455e+02   0.00000e+00 
   @DF-RHF iter   1:  -154.00367526100865   -5.48478e-01   9.37239e-04 ADIIS/DIIS
   @DF-RHF iter   2:  -154.11544471088067   -1.11769e-01   4.95188e-04 ADIIS/DIIS
   @DF-RHF iter   3:  -154.14335898556698   -2.79143e-02   8.38192e-05 DIIS
   @DF-RHF iter   4:  -154.14493515196500   -1.57617e-03   3.20631e-05 DIIS
   @DF-RHF iter   5:  -154.14512093396712   -1.85782e-04   6.21171e-06 DIIS
   @DF-RHF iter   6:  -154.14513119891194   -1.02649e-05   1.42409e-06 DIIS
   @DF-RHF iter   7:  -154.14513193304361   -7.34132e-07   4.05443e-07 DIIS
   @DF-RHF iter   8:  -154.14513198809541   -5.50518e-08   1.28424e-07 DIIS
   @DF-RHF iter   9:  -154.14513199427023   -6.17482e-09   3.29843e-08 DIIS
   @DF-RHF iter  10:  -154.14513199470298   -4.32749e-10   6.29735e-09 DIIS
  Energy and wave function converged.


  ==> Post-Iterations <==

    Orbital Energies [Eh]
    ---------------------

    Doubly Occupied:                                                      

       1A    -20.555261     2A    -11.273564     3A    -11.218616  
       4A     -1.361670     5A     -1.014615     6A     -0.848824  
       7A     -0.686395     8A     -0.625709     9A     -0.612992  
      10A     -0.543711    11A     -0.526458    12A     -0.481174  
      13A     -0.442911  

    Virtual:                                                              

      14A      0.025406    15A      0.032868    16A      0.036301  
      17A      0.038507    18A      0.051084    19A      0.052920  
      20A      0.053351    21A      0.063482    22A      0.065964  
      23A      0.077745    24A      0.080164    25A      0.084309  
      26A      0.104981    27A      0.109745    28A      0.116039  
      29A      0.119075    30A      0.126714    31A      0.129392  
      32A      0.132690    33A      0.136438    34A      0.140097  
      35A      0.144119    36A      0.152156    37A      0.157556  
      38A      0.166100    39A      0.172810    40A      0.180733  
      41A      0.182449    42A      0.199527    43A      0.209705  
      44A      0.215689    45A      0.217903    46A      0.225789  
      47A      0.230436    48A      0.241527    49A      0.253090  
      50A      0.262282    51A      0.263378    52A      0.277634  
      53A      0.279289    54A      0.290211    55A      0.290442  
      56A      0.303137    57A      0.309675    58A      0.312464  
      59A      0.318574    60A      0.321960    61A      0.329132  
      62A      0.336074    63A      0.341197    64A      0.345933  
      65A      0.347356    66A      0.357818    67A      0.359984  
      68A      0.364262    69A      0.374562    70A      0.379562  
      71A      0.383630    72A      0.390392    73A      0.395800  
      74A      0.401715    75A      0.403109    76A      0.406837  
      77A      0.423194    78A      0.425458    79A      0.434016  
      80A      0.436643    81A      0.440340    82A      0.444979  
      83A      0.449605    84A      0.457917    85A      0.459810  
      86A      0.464150    87A      0.474451    88A      0.476262  
      89A      0.476569    90A      0.483879    91A      0.497219  
      92A      0.509364    93A      0.510293    94A      0.511906  
      95A      0.520077    96A      0.522033    97A      0.526896  
      98A      0.541308    99A      0.546234   100A      0.553062  
     101A      0.559351   102A      0.563965   103A      0.568654  
     104A      0.576769   105A      0.583404   106A      0.591979  
     107A      0.600861   108A      0.611673   109A      0.614000  
     110A      0.622369   111A      0.631715   112A      0.634652  
     113A      0.642267   114A      0.653291   115A      0.655600  
     116A      0.666948   117A      0.680643   118A      0.684690  
     119A      0.698051   120A      0.708230   121A      0.720480  
     122A      0.728678   123A      0.740021   124A      0.747774  
     125A      0.764200   126A      0.768556   127A      0.777427  
     128A      0.794635   129A      0.804186   130A      0.807440  
     131A      0.819736   132A      0.834579   133A      0.838685  
     134A      0.843536   135A      0.856557   136A      0.865781  
     137A      0.878743   138A      0.885962   139A      0.894586  
     140A      0.900755   141A      0.907000   142A      0.918622  
     143A      0.924279   144A      0.936584   145A      0.940109  
     146A      0.949629   147A      0.959971   148A      0.966767  
     149A      0.970100   150A      0.977983   151A      0.981945  
     152A      0.994693   153A      1.001756   154A      1.010380  
     155A      1.015402   156A      1.018364   157A      1.030530  
     158A      1.035684   159A      1.041681   160A      1.054771  
     161A      1.059669   162A      1.066340   163A      1.077041  
     164A      1.078312   165A      1.093763   166A      1.097821  
     167A      1.103523   168A      1.107841   169A      1.111235  
     170A      1.119092   171A      1.128198   172A      1.135688  
     173A      1.139752   174A      1.142516   175A      1.145527  
     176A      1.148587   177A      1.163482   178A      1.170942  
     179A      1.177904   180A      1.184155   181A      1.185052  
     182A      1.194729   183A      1.213463   184A      1.218989  
     185A      1.229145   186A      1.234550   187A      1.240873  
     188A      1.246220   189A      1.253361   190A      1.258231  
     191A      1.270300   192A      1.272643   193A      1.276589  
     194A      1.292134   195A      1.299230   196A      1.300946  
     197A      1.313458   198A      1.323826   199A      1.338983  
     200A      1.345767   201A      1.355451   202A      1.361348  
     203A      1.372112   204A      1.380460   205A      1.389632  
     206A      1.401781   207A      1.403513   208A      1.408154  
     209A      1.413657   210A      1.428010   211A      1.430586  
     212A      1.443294   213A      1.452598   214A      1.461734  
     215A      1.477095   216A      1.485819   217A      1.494192  
     218A      1.504044   219A      1.512955   220A      1.522313  
     221A      1.534686   222A      1.542887   223A      1.565264  
     224A      1.574758   225A      1.585516   226A      1.592050  
     227A      1.598558   228A      1.607287   229A      1.616932  
     230A      1.632834   231A      1.636644   232A      1.647342  
     233A      1.657443   234A      1.664534   235A      1.684679  
     236A      1.693035   237A      1.709999   238A      1.716384  
     239A      1.727717   240A      1.731783   241A      1.746247  
     242A      1.752464   243A      1.768382   244A      1.785491  
     245A      1.794833   246A      1.798422   247A      1.806366  
     248A      1.821267   249A      1.830787   250A      1.838620  
     251A      1.844628   252A      1.859466   253A      1.878959  
     254A      1.896400   255A      1.905711   256A      1.918994  
     257A      1.922923   258A      1.927007   259A      1.933246  
     260A      1.959621   261A      1.961421   262A      1.979860  
     263A      1.992536   264A      2.001545   265A      2.014911  
     266A      2.024973   267A      2.031358   268A      2.050671  
     269A      2.064545   270A      2.068790   271A      2.081082  
     272A      2.088257   273A      2.102715   274A      2.112304  
     275A      2.127935   276A      2.154585   277A      2.161808  
     278A      2.172113   279A      2.182283   280A      2.197660  
     281A      2.212865   282A      2.213611   283A      2.220144  
     284A      2.242917   285A      2.248963   286A      2.260412  
     287A      2.266834   288A      2.279899   289A      2.294616  
     290A      2.298651   291A      2.313883   292A      2.335425  
     293A      2.353918   294A      2.363216   295A      2.391291  
     296A      2.395280   297A      2.428951   298A      2.450175  
     299A      2.481189   300A      2.492192   301A      2.510388  
     302A      2.515899   303A      2.551319   304A      2.571102  
     305A      2.608348   306A      2.614744   307A      2.630703  
     308A      2.654418   309A      2.682027   310A      2.698979  
     311A      2.711391   312A      2.731842   313A      2.756630  
     314A      2.770063   315A      2.785470   316A      2.795915  
     317A      2.815493   318A      2.826303   319A      2.843876  
     320A      2.876322   321A      2.879268   322A      2.893703  
     323A      2.916975   324A      2.920701   325A      2.981895  
     326A      3.021776   327A      3.035984   328A      3.042906  
     329A      3.062630   330A      3.100631   331A      3.101173  
     332A      3.147771   333A      3.176953   334A      3.223947  
     335A      3.248429   336A      3.257293   337A      3.271101  
     338A      3.320596   339A      3.356344   340A      3.371280  
     341A      3.424192   342A      3.448779   343A      3.492978  
     344A      3.511970   345A      3.530170   346A      3.534950  
     347A      3.585658   348A      3.596924   349A      3.642291  
     350A      3.657485   351A      3.678156   352A      3.700215  
     353A      3.714883   354A      3.738383   355A      3.759875  
     356A      3.780668   357A      3.799961   358A      3.811888  
     359A      3.815713   360A      3.846413   361A      3.866997  
     362A      3.910963   363A      3.933676   364A      3.952945  
     365A      3.972813   366A      3.990840   367A      3.995042  
     368A      4.020019   369A      4.049371   370A      4.086130  
     371A      4.093100   372A      4.100125   373A      4.119137  
     374A      4.137213   375A      4.153672   376A      4.165857  
     377A      4.173805   378A      4.181984   379A      4.191615  
     380A      4.221942   381A      4.244387   382A      4.253220  
     383A      4.262604   384A      4.277993   385A      4.297141  
     386A      4.299378   387A      4.327739   388A      4.360279  
     389A      4.376512   390A      4.405931   391A      4.422928  
     392A      4.434081   393A      4.472790   394A      4.474735  
     395A      4.494824   396A      4.504185   397A      4.528323  
     398A      4.553028   399A      4.565900   400A      4.577901  
     401A      4.590809   402A      4.602087   403A      4.611199  
     404A      4.623841   405A      4.639258   406A      4.648823  
     407A      4.652684   408A      4.664672   409A      4.702985  
     410A      4.707900   411A      4.729598   412A      4.739601  
     413A      4.756120   414A      4.790418   415A      4.798938  
     416A      4.813301   417A      4.833175   418A      4.853093  
     419A      4.863912   420A      4.868234   421A      4.891516  
     422A      4.893596   423A      4.918290   424A      4.936989  
     425A      4.953277   426A      4.964971   427A      4.982695  
     428A      4.998429   429A      5.016835   430A      5.029278  
     431A      5.037829   432A      5.045570   433A      5.070499  
     434A      5.082139   435A      5.096659   436A      5.123509  
     437A      5.148345   438A      5.169311   439A      5.189321  
     440A      5.200514   441A      5.220388   442A      5.242679  
     443A      5.256443   444A      5.272061   445A      5.285576  
     446A      5.342428   447A      5.358273   448A      5.371592  
     449A      5.376811   450A      5.395958   451A      5.401835  
     452A      5.414488   453A      5.454087   454A      5.470520  
     455A      5.511438   456A      5.527528   457A      5.537828  
     458A      5.539063   459A      5.564424   460A      5.577209  
     461A      5.586787   462A      5.608883   463A      5.629601  
     464A      5.644829   465A      5.656450   466A      5.662523  
     467A      5.704908   468A      5.712505   469A      5.735648  
     470A      5.742977   471A      5.769152   472A      5.796222  
     473A      5.804855   474A      5.837919   475A      5.872430  
     476A      5.877547   477A      5.907929   478A      5.968340  
     479A      6.019764   480A      6.055232   481A      6.086728  
     482A      6.103266   483A      6.131096   484A      6.156706  
     485A      6.191541   486A      6.212282   487A      6.260353  
     488A      6.271901   489A      6.281489   490A      6.297640  
     491A      6.333619   492A      6.415649   493A      6.418627  
     494A      6.495822   495A      6.523210   496A      6.736317  
     497A      6.775909   498A      6.796389   499A      6.812070  
     500A      6.872237   501A      6.890700   502A      6.970880  
     503A      7.007293   504A      7.039830   505A      7.047681  
     506A      7.128371   507A      7.140801   508A      7.168240  
     509A      7.200188   510A      7.380805   511A      7.399875  
     512A      7.409228   513A      7.531408   514A      7.551069  
     515A      7.749579   516A      7.790376   517A      7.843303  
     518A      7.862637   519A      7.866869   520A      7.886781  
     521A      7.891863   522A      7.935788   523A      7.976957  
     524A      8.034309   525A      8.114511   526A      8.211363  
     527A      8.294078   528A      8.311832   529A      8.318201  
     530A      8.375468   531A      8.434399   532A      8.605808  
     533A      8.670914   534A      8.920429   535A      9.038403  
     536A      9.985183   537A     10.064469   538A     10.277453  
     539A     10.408690   540A     10.700104   541A     10.773420  
     542A     11.082063   543A     12.013397   544A     12.365616  
     545A     13.307965   546A     14.120331   547A     16.422742  
     548A     17.813944   549A     18.724228   550A     53.416635  
     551A     55.114611   552A     66.575485  

    Final Occupation by Irrep:
              A 
    DOCC [    13 ]
    NA   [    13 ]
    NB   [    13 ]

  @DF-RHF Final Energy:  -154.14513199470298

   => Energetics <=

    Nuclear Repulsion Energy =             82.1425760024568348
    One-Electron Energy =                -372.1916145386226162
    Two-Electron Energy =                 135.9039065414627885
    Total Energy =                       -154.1451319947029788

Computation Completed


Properties will be evaluated at   0.000000,   0.000000,   0.000000 [a0]

Properties computed using the SCF density matrix


 Multipole Moments:

 ------------------------------------------------------------------------------------
     Multipole            Electronic (a.u.)      Nuclear  (a.u.)        Total (a.u.)
 ------------------------------------------------------------------------------------

 L = 1.  Multiply by 2.5417464519 to convert [e a0] to [Debye]
 Dipole X            :         97.6362877          -98.2641919           -0.6279043
 Dipole Y            :          0.3488313           -0.0127330            0.3360983
 Dipole Z            :         -1.8385225            1.7982804           -0.0402421
 Magnitude           :                                                    0.7133339

 ------------------------------------------------------------------------------------

*** tstop() called on moses-razer at Sat Mar  1 23:20:43 2025
Module time:
	user time   =      98.03 seconds =       1.63 minutes
	system time =       1.45 seconds =       0.02 minutes
	total time  =         99 seconds =       1.65 minutes
Total time:
	user time   =     341.72 seconds =       5.70 minutes
	system time =       6.54 seconds =       0.11 minutes
	total time  =        348 seconds =       5.80 minutes
  Constructing Basis Sets for SAPT...

   => Loading Basis Set <=

    Name: (AUG-CC-PVTZ AUX)
    Role: RIFIT
    Keyword: DF_BASIS_SAPT
    atoms 1-2, 10-11 entry C          line   148 file /home/kchung25/anaconda3/envs/p415env/share/psi4/basis/aug-cc-pvtz-ri.gbs 
    atoms 3, 12      entry O          line   264 file /home/kchung25/anaconda3/envs/p415env/share/psi4/basis/aug-cc-pvtz-ri.gbs 
    atoms 4-9, 13-18 entry H          line    30 file /home/kchung25/anaconda3/envs/p415env/share/psi4/basis/aug-cc-pvtz-ri.gbs 

   => Loading Basis Set <=

    Name: (AUG-CC-PVTZ AUX)
    Role: JKFIT
    Keyword: DF_BASIS_ELST
    atoms 1-2, 10-11 entry C          line   162 file /home/kchung25/anaconda3/envs/p415env/share/psi4/basis/aug-cc-pvtz-jkfit.gbs 
    atoms 3, 12      entry O          line   286 file /home/kchung25/anaconda3/envs/p415env/share/psi4/basis/aug-cc-pvtz-jkfit.gbs 
    atoms 4-9, 13-18 entry H          line    70 file /home/kchung25/anaconda3/envs/p415env/share/psi4/basis/aug-cc-pvtz-jkfit.gbs 


  //>>>>>>>>>>>>>>>>>>>>>>>>>>>>>>>>>>>//
  //               SAPT2+              //
  //<<<<<<<<<<<<<<<<<<<<<<<<<<<<<<<<<<<//


*** tstart() called on moses-razer
*** at Sat Mar  1 23:20:44 2025

        SAPT2+  
    Ed Hohenstein
     6 June 2009

      Orbital Information
  --------------------------
    NSO        =       552
    NMO        =       552
    NRI        =      1188
    NOCC A     =        13
    NOCC B     =        13
    FOCC A     =         0
    FOCC B     =         0
    NVIR A     =       539
    NVIR B     =       539

    Estimated memory usage: 3939.5 MB

    Natural Orbital Cutoff:   1.000E-06
    Disp(T3) Truncation:            Yes
    CCD (vv|vv) Truncation:         Yes
    MBPT T2 Truncation:             Yes

    Monomer A: 308 virtual orbitals dropped
    Monomer B: 306 virtual orbitals dropped

    Elst10,r            =    -0.003428267650 [Eh]
    Exch10 (S^2)        =     0.005745803143 [Eh]
    Exch10              =     0.005758473442 [Eh]
    Ind20,r (A<-B)      =    -0.001196005411 [Eh]
    Ind20,r (B<-A)      =    -0.000490437583 [Eh]
    Ind20,r             =    -0.001686442994 [Eh]
    Exch-Ind20,r (A<-B) =     0.000758887274 [Eh]
    Exch-Ind20,r (B<-A) =     0.000384889482 [Eh]
    Exch-Ind20,r        =     0.001143776756 [Eh]
    Disp20              =    -0.006168067470 [Eh]
    Disp20 (NO)         =    -0.005519822328 [Eh]
    Exch-Disp20         =     0.000635996868 [Eh]
    Elst12,r            =    -0.000268495538 [Eh]
    Exch11              =     0.000034418633 [Eh]
    Exch12              =     0.000791452464 [Eh]
    Ind22               =    -0.000197341931 [Eh]
    Disp21              =     0.000369160577 [Eh]
    Disp22 (SDQ)        =     0.000136621955 [Eh]

    (i =   1 of  13)        232 seconds
    (i =   2 of  13)        467 seconds
    (i =   3 of  13)        712 seconds
    (i =   4 of  13)       1017 seconds
    (i =   5 of  13)       1346 seconds
    (i =   6 of  13)       1647 seconds
    (i =   7 of  13)       1894 seconds
    (i =   8 of  13)       2174 seconds
    (i =   9 of  13)       2456 seconds
    (i =  10 of  13)       2779 seconds
    (i =  11 of  13)       3054 seconds
    (i =  12 of  13)       3292 seconds
    (i =  13 of  13)       3528 seconds

    Disp220 (T)         =    -0.000391102217 [Eh]

    (i =   1 of  13)        262 seconds
    (i =   2 of  13)        501 seconds
    (i =   3 of  13)        740 seconds
    (i =   4 of  13)        979 seconds
    (i =   5 of  13)       1219 seconds
    (i =   6 of  13)       1458 seconds
    (i =   7 of  13)       1697 seconds
    (i =   8 of  13)       1953 seconds
    (i =   9 of  13)       2192 seconds
    (i =  10 of  13)       2431 seconds
    (i =  11 of  13)       2670 seconds
    (i =  12 of  13)       2909 seconds
    (i =  13 of  13)       3146 seconds

    Disp202 (T)         =    -0.000473445158 [Eh]

    Disp22 (T)          =    -0.000864547375 [Eh]

    Est. Disp220 (T)    =    -0.000437033063 [Eh]
    Est. Disp202 (T)    =    -0.000529046318 [Eh]

    Est. Disp22 (T)     =    -0.000966079381 [Eh]

    SAPT Results 
  --------------------------------------------------------------------------------------------------------
    Electrostatics                 -3.69676319 [mEh]      -2.31975392 [kcal/mol]      -9.70585041 [kJ/mol]
      Elst10,r                     -3.42826765 [mEh]      -2.15127043 [kcal/mol]      -9.00091547 [kJ/mol]
      Elst12,r                     -0.26849554 [mEh]      -0.16848349 [kcal/mol]      -0.70493494 [kJ/mol]

    Exchange                        6.58434454 [mEh]       4.13173858 [kcal/mol]      17.28719421 [kJ/mol]
      Exch10                        5.75847344 [mEh]       3.61349664 [kcal/mol]      15.11886994 [kJ/mol]
      Exch10(S^2)                   5.74580314 [mEh]       3.60554591 [kcal/mol]      15.08560407 [kJ/mol]
      Exch11(S^2)                   0.03441863 [mEh]       0.02159802 [kcal/mol]       0.09036611 [kJ/mol]
      Exch12(S^2)                   0.79145246 [mEh]       0.49664392 [kcal/mol]       2.07795816 [kJ/mol]

    Induction                      -1.02175917 [mEh]      -0.64116356 [kcal/mol]      -2.68262833 [kJ/mol]
      Ind20,r                      -1.68644299 [mEh]      -1.05825896 [kcal/mol]      -4.42775547 [kJ/mol]
      Ind22                        -0.19734193 [mEh]      -0.12383393 [kcal/mol]      -0.51812117 [kJ/mol]
      Exch-Ind20,r                  1.14377676 [mEh]       0.71773075 [kcal/mol]       3.00298546 [kJ/mol]
      Exch-Ind22                    0.13384094 [mEh]       0.08398646 [kcal/mol]       0.35139934 [kJ/mol]
      delta HF,r (2)               -0.41559194 [mEh]      -0.26078788 [kcal/mol]      -1.09113648 [kJ/mol]

    Dispersion                     -5.99236745 [mEh]      -3.76026735 [kcal/mol]     -15.73295858 [kJ/mol]
      Disp20                       -6.16806747 [mEh]      -3.87052077 [kcal/mol]     -16.19425891 [kJ/mol]
      Disp21                        0.36916058 [mEh]       0.23165176 [kcal/mol]       0.96923096 [kJ/mol]
      Disp22 (SDQ)                  0.13662195 [mEh]       0.08573157 [kcal/mol]       0.35870089 [kJ/mol]
      Disp22 (T)                   -0.86454737 [mEh]      -0.54251167 [kcal/mol]      -2.26986882 [kJ/mol]
      Est. Disp22 (T)              -0.96607938 [mEh]      -0.60622396 [kcal/mol]      -2.53644107 [kJ/mol]
      Exch-Disp20                   0.63599687 [mEh]       0.39909406 [kcal/mol]       1.66980955 [kJ/mol]

  Total HF                          1.37194762 [mEh]       0.86091013 [kcal/mol]       3.60204797 [kJ/mol]
  Total SAPT0                      -4.16012299 [mEh]      -2.61051659 [kcal/mol]     -10.92240140 [kJ/mol]
  Total SAPT2                      -3.66624842 [mEh]      -2.30060562 [kcal/mol]      -9.62573390 [kJ/mol]
  Total SAPT2+                     -4.12654527 [mEh]      -2.58944625 [kcal/mol]     -10.83424311 [kJ/mol]

  Special recipe for scaled SAPT0 (see Manual):
    Electrostatics sSAPT0          -3.42826765 [mEh]      -2.15127043 [kcal/mol]      -9.00091547 [kJ/mol]
    Exchange sSAPT0                 5.75847344 [mEh]       3.61349664 [kcal/mol]      15.11886994 [kJ/mol]
    Induction sSAPT0               -0.95067492 [mEh]      -0.59655752 [kcal/mol]      -2.49599665 [kJ/mol]
    Dispersion sSAPT0              -5.52785393 [mEh]      -3.46878071 [kcal/mol]     -14.51337850 [kJ/mol]
  Total sSAPT0                     -4.14832305 [mEh]      -2.60311202 [kcal/mol]     -10.89142068 [kJ/mol]
  --------------------------------------------------------------------------------------------------------

*** tstop() called on moses-razer at Sun Mar  2 01:51:20 2025
Module time:
	user time   =    8892.39 seconds =     148.21 minutes
	system time =     130.18 seconds =       2.17 minutes
	total time  =       9036 seconds =     150.60 minutes
Total time:
	user time   =    9234.31 seconds =     153.91 minutes
	system time =     136.73 seconds =       2.28 minutes
	total time  =       9385 seconds =     156.42 minutes

    Psi4 stopped on: Sunday, 02 March 2025 01:51AM
    Psi4 wall time for execution: 2:36:25.54

*** Psi4 exiting successfully. Buy a developer a beer!
