
    -----------------------------------------------------------------------
          Psi4: An Open-Source Ab Initio Electronic Structure Package
                               Psi4 1.9.1 release

                         Git: Rev {} zzzzzzz 


    D. G. A. Smith, L. A. Burns, A. C. Simmonett, R. M. Parrish,
    M. C. Schieber, R. Galvelis, P. Kraus, H. Kruse, R. Di Remigio,
    A. Alenaizan, A. M. James, S. Lehtola, J. P. Misiewicz, M. Scheurer,
    R. A. Shaw, J. B. Schriber, Y. Xie, Z. L. Glick, D. A. Sirianni,
    J. S. O'Brien, J. M. Waldrop, A. Kumar, E. G. Hohenstein,
    B. P. Pritchard, B. R. Brooks, H. F. Schaefer III, A. Yu. Sokolov,
    K. Patkowski, A. E. DePrince III, U. Bozkaya, R. A. King,
    F. A. Evangelista, J. M. Turney, T. D. Crawford, C. D. Sherrill,
    J. Chem. Phys. 152(18) 184108 (2020). https://doi.org/10.1063/5.0006002

                            Additional Code Authors
    E. T. Seidl, C. L. Janssen, E. F. Valeev, M. L. Leininger,
    J. F. Gonthier, R. M. Richard, H. R. McAlexander, M. Saitow, X. Wang,
    P. Verma, M. H. Lechner, A. Jiang, S. Behnle, A. G. Heide,
    M. F. Herbst, and D. L. Poole

             Previous Authors, Complete List of Code Contributors,
                       and Citations for Specific Modules
    https://github.com/psi4/psi4/blob/master/codemeta.json
    https://github.com/psi4/psi4/graphs/contributors
    http://psicode.org/psi4manual/master/introduction.html#citing-psifour

    -----------------------------------------------------------------------


    Psi4 started on: Thursday, 27 February 2025 03:00PM

    Process ID: 3729
    Host:       ivy
    PSIDATADIR: /home/kchung25/miniconda3/envs/p4env/share/psi4
    Memory:     500.0 MiB
    Threads:    2
    
  ==> Input File <==

--------------------------------------------------------------------------
MEMORY 10 GB

molecule dimer {
0 1
C    2.303132   0.769097   0.598623
C    1.771037  -0.610986   0.306818
O    1.096965  -0.672425  -0.955992
H    1.720340  -0.407252  -1.638962
H    2.779410   0.788335   1.576531
H    1.492158   1.491832   0.589266
H    3.046547   1.060996  -0.141675
H    1.016509  -0.890517   1.035624
H    2.564219  -1.357732   0.335502
--
0 1
C   -1.859760  -1.086701   0.582047
C   -1.994904   0.165857  -0.253511
O   -0.783444   0.897808  -0.321738
H   -0.114932   0.312127  -0.705656
H   -2.810129  -1.614235   0.643460
H   -1.538092  -0.833778   1.589408
H   -1.127109  -1.759714   0.141021
H   -2.726940   0.837786   0.187279
H   -2.344767  -0.090527  -1.256172

units ang
no_reorient
no_com
symmetry c1
}

set {
basis        aug-cc-pVTZ
scf_type     df
}

energy("mp2", bsse_type="cp")
--------------------------------------------------------------------------

  Memory set to   9.313 GiB by Python driver.

Scratch directory: /tmp/

  //>>>>>>>>>>>>>>>>>>>>>>>>>>>>>>>>>>>>>//
  // ManyBody Setup: N-Body Levels [1, 2]//
  //<<<<<<<<<<<<<<<<<<<<<<<<<<<<<<<<<<<<<//

        Number of 1-body computations:     2
        Number of 2-body computations:     1

    -----------------------------------------------------------------------
          Psi4: An Open-Source Ab Initio Electronic Structure Package
                               Psi4 1.9.1 release

                         Git: Rev {} zzzzzzz 


    D. G. A. Smith, L. A. Burns, A. C. Simmonett, R. M. Parrish,
    M. C. Schieber, R. Galvelis, P. Kraus, H. Kruse, R. Di Remigio,
    A. Alenaizan, A. M. James, S. Lehtola, J. P. Misiewicz, M. Scheurer,
    R. A. Shaw, J. B. Schriber, Y. Xie, Z. L. Glick, D. A. Sirianni,
    J. S. O'Brien, J. M. Waldrop, A. Kumar, E. G. Hohenstein,
    B. P. Pritchard, B. R. Brooks, H. F. Schaefer III, A. Yu. Sokolov,
    K. Patkowski, A. E. DePrince III, U. Bozkaya, R. A. King,
    F. A. Evangelista, J. M. Turney, T. D. Crawford, C. D. Sherrill,
    J. Chem. Phys. 152(18) 184108 (2020). https://doi.org/10.1063/5.0006002

                            Additional Code Authors
    E. T. Seidl, C. L. Janssen, E. F. Valeev, M. L. Leininger,
    J. F. Gonthier, R. M. Richard, H. R. McAlexander, M. Saitow, X. Wang,
    P. Verma, M. H. Lechner, A. Jiang, S. Behnle, A. G. Heide,
    M. F. Herbst, and D. L. Poole

             Previous Authors, Complete List of Code Contributors,
                       and Citations for Specific Modules
    https://github.com/psi4/psi4/blob/master/codemeta.json
    https://github.com/psi4/psi4/graphs/contributors
    http://psicode.org/psi4manual/master/introduction.html#citing-psifour

    -----------------------------------------------------------------------


    Psi4 started on: Thursday, 27 February 2025 03:00PM

    Process ID: 3729
    Host:       ivy
    PSIDATADIR: /home/kchung25/miniconda3/envs/p4env/share/psi4
    Memory:     9.3 GiB
    Threads:    2
    
  ==> Input QCSchema <==

--------------------------------------------------------------------------
{'driver': 'energy',
 'extras': {'psiapi': True, 'wfn_qcvars_only': True},
 'id': None,
 'keywords': {'SCF_TYPE': 'DF', 'function_kwargs': {}},
 'model': {'basis': 'aug-cc-pvtz', 'method': 'mp2'},
 'molecule': {'atom_labels': ['', '', '', '', '', '', '', '', '', '', '', '', '', '', '', '', '', ''],
              'atomic_numbers': [6, 6, 8, 1, 1, 1, 1, 1, 1, 6, 6, 8, 1, 1, 1, 1, 1, 1],
              'extras': {},
              'fix_com': True,
              'fix_orientation': True,
              'fix_symmetry': 'c1',
              'fragment_charges': [0.0, 0.0],
              'fragment_multiplicities': [1, 1],
              'fragments': [[0, 1, 2, 3, 4, 5, 6, 7, 8], [9, 10, 11, 12, 13, 14, 15, 16, 17]],
              'geometry': [4.352288710777939, 1.4533826939112393, 1.1312335223999415, 3.3467748880524555,
                           -1.1545962064889765, 0.5798019903607199, 2.0729634192128463, -1.2706990899109802,
                           -1.80656305812868, 3.25097144267012, -0.7695947440449514, -3.097189310032613,
                           5.252323690358742, 1.489737245112797, 2.979211818294155, 2.819769955910902,
                           2.819153905194003, 1.1135513550440326, 5.7571394583351685, 2.0049918602062538,
                           -0.2677269488242378, 1.9209236140630117, -1.6828332400643284, 1.957045728951138,
                           4.845671635695346, -2.565741631770108, 0.6340068945433524, -3.51443705908145,
                           -2.053567270261147, 1.0999094221443524, -3.769822206580323, 0.313424305990059,
                           -0.4790663597909394, -1.4804945946331824, 1.6966112332450418, -0.6079967041525508,
                           -0.21719000305111913, 0.5898345463607755, -1.333496578786069, -5.310374187206681,
                           -3.0504620521284176, 1.215963172687094, -2.9065726357576818, -1.575612069431977,
                           3.0035458216116755, -2.129927323538647, -3.325377519133897, 0.2664910679381884,
                           -5.153169760555969, 1.583186091742812, 0.3539060190496166, -4.430967458011375,
                           -0.1710712369593208, -2.373821046468611],
              'mass_numbers': [12, 12, 16, 1, 1, 1, 1, 1, 1, 12, 12, 16, 1, 1, 1, 1, 1, 1],
              'masses': [12.0, 12.0, 15.99491461957, 1.00782503223, 1.00782503223, 1.00782503223, 1.00782503223,
                         1.00782503223, 1.00782503223, 12.0, 12.0, 15.99491461957, 1.00782503223, 1.00782503223,
                         1.00782503223, 1.00782503223, 1.00782503223, 1.00782503223],
              'molecular_charge': 0.0,
              'molecular_multiplicity': 1,
              'name': 'dimer',
              'provenance': {'creator': 'QCElemental',
                             'routine': 'qcelemental.molparse.from_string',
                             'version': '0.27.1'},
              'real': [False, False, False, False, False, False, False, False, False, True, True, True, True, True,
                       True, True, True, True],
              'schema_name': 'qcschema_molecule',
              'schema_version': 2,
              'symbols': ['C', 'C', 'O', 'H', 'H', 'H', 'H', 'H', 'H', 'C', 'C', 'O', 'H', 'H', 'H', 'H', 'H', 'H'],
              'validated': True},
 'protocols': {'stdout': True},
 'provenance': {'creator': 'QCElemental', 'routine': 'qcelemental.models.results', 'version': '0.27.1'},
 'schema_name': 'qcschema_input',
 'schema_version': 1}
--------------------------------------------------------------------------

Scratch directory: /tmp/
   => Libint2 <=

    Primary   basis highest AM E, G, H:  6, 6, 3
    Auxiliary basis highest AM E, G, H:  7, 7, 4
    Onebody   basis highest AM E, G, H:  -, -, -
    Solid Harmonics ordering:            Gaussian

*** tstart() called on ivy
*** at Thu Feb 27 15:00:09 2025

   => Loading Basis Set <=

    Name: AUG-CC-PVTZ
    Role: ORBITAL
    Keyword: BASIS
    atoms 1-2, 10-11 entry C          line   239 file /home/kchung25/miniconda3/envs/p4env/share/psi4/basis/aug-cc-pvtz.gbs 
    atoms 3, 12      entry O          line   331 file /home/kchung25/miniconda3/envs/p4env/share/psi4/basis/aug-cc-pvtz.gbs 
    atoms 4-9, 13-18 entry H          line    40 file /home/kchung25/miniconda3/envs/p4env/share/psi4/basis/aug-cc-pvtz.gbs 


         ---------------------------------------------------------
                                   SCF
               by Justin Turney, Rob Parrish, Andy Simmonett
                          and Daniel G. A. Smith
                              RHF Reference
                        2 Threads,   9536 MiB Core
         ---------------------------------------------------------

  ==> Geometry <==

    Molecular point group: c1
    Full point group: C1

    Geometry (in Bohr), charge = 0, multiplicity = 1:

       Center              X                  Y                   Z               Mass       
    ------------   -----------------  -----------------  -----------------  -----------------
      Gh(C)           4.352288710778     1.453382693911     1.131233522400    12.000000000000
      Gh(C)           3.346774888052    -1.154596206489     0.579801990361    12.000000000000
      Gh(O)           2.072963419213    -1.270699089911    -1.806563058129    15.994914619570
      Gh(H)           3.250971442670    -0.769594744045    -3.097189310033     1.007825032230
      Gh(H)           5.252323690359     1.489737245113     2.979211818294     1.007825032230
      Gh(H)           2.819769955911     2.819153905194     1.113551355044     1.007825032230
      Gh(H)           5.757139458335     2.004991860206    -0.267726948824     1.007825032230
      Gh(H)           1.920923614063    -1.682833240064     1.957045728951     1.007825032230
      Gh(H)           4.845671635695    -2.565741631770     0.634006894543     1.007825032230
         C           -3.514437059081    -2.053567270261     1.099909422144    12.000000000000
         C           -3.769822206580     0.313424305990    -0.479066359791    12.000000000000
         O           -1.480494594633     1.696611233245    -0.607996704153    15.994914619570
         H           -0.217190003051     0.589834546361    -1.333496578786     1.007825032230
         H           -5.310374187207    -3.050462052128     1.215963172687     1.007825032230
         H           -2.906572635758    -1.575612069432     3.003545821612     1.007825032230
         H           -2.129927323539    -3.325377519134     0.266491067938     1.007825032230
         H           -5.153169760556     1.583186091743     0.353906019050     1.007825032230
         H           -4.430967458011    -0.171071236959    -2.373821046469     1.007825032230

  Running in c1 symmetry.

  Rotational constants: A =      0.17253  B =      0.05375  C =      0.05036 [cm^-1]
  Rotational constants: A =   5172.30899  B =   1611.49780  C =   1509.62540 [MHz]
  Nuclear repulsion =   82.079493489535267

  Charge       = 0
  Multiplicity = 1
  Electrons    = 26
  Nalpha       = 13
  Nbeta        = 13

  ==> Algorithm <==

  SCF Algorithm Type is DF.
  DIIS enabled.
  MOM disabled.
  Fractional occupation disabled.
  Guess Type is SAD.
  Energy threshold   = 1.00e-08
  Density threshold  = 1.00e-08
  Integral threshold = 1.00e-12

  ==> Primary Basis <==

  Basis Set: AUG-CC-PVTZ
    Blend: AUG-CC-PVTZ
    Number of shells: 192
    Number of basis functions: 552
    Number of Cartesian functions: 630
    Spherical Harmonics?: true
    Max angular momentum: 3

   => Loading Basis Set <=

    Name: (AUG-CC-PVTZ AUX)
    Role: JKFIT
    Keyword: DF_BASIS_SCF
    atoms 1-2, 10-11 entry C          line   162 file /home/kchung25/miniconda3/envs/p4env/share/psi4/basis/aug-cc-pvtz-jkfit.gbs 
    atoms 3, 12      entry O          line   286 file /home/kchung25/miniconda3/envs/p4env/share/psi4/basis/aug-cc-pvtz-jkfit.gbs 
    atoms 4-9, 13-18 entry H          line    70 file /home/kchung25/miniconda3/envs/p4env/share/psi4/basis/aug-cc-pvtz-jkfit.gbs 

  ==> Integral Setup <==

  DFHelper Memory: AOs need 2.640 GiB; user supplied 6.985 GiB. 
  Using in-core AOs.

  ==> MemDFJK: Density-Fitted J/K Matrices <==

    J tasked:                   Yes
    K tasked:                   Yes
    wK tasked:                   No
    OpenMP threads:               2
    Memory [MiB]:              7152
    Algorithm:                 Core
    Schwarz Cutoff:           1E-12
    Mask sparsity (%):       3.9573
    Fitting Condition:        1E-10

   => Auxiliary Basis Set <=

  Basis Set: (AUG-CC-PVTZ AUX)
    Blend: AUG-CC-PVTZ-JKFIT
    Number of shells: 348
    Number of basis functions: 1176
    Number of Cartesian functions: 1446
    Spherical Harmonics?: true
    Max angular momentum: 4

  Minimum eigenvalue in the overlap matrix is 7.6265419109E-06.
  Reciprocal condition number of the overlap matrix is 3.8980874977E-07.
    Using symmetric orthogonalization.

  ==> Pre-Iterations <==

  SCF Guess: Superposition of Atomic Densities via on-the-fly atomic UHF (no occupation information).

   -------------------------
    Irrep   Nso     Nmo    
   -------------------------
     A        552     552 
   -------------------------
    Total     552     552
   -------------------------

  ==> Iterations <==

                           Total Energy        Delta E     RMS |[F,P]|

   @DF-RHF iter SAD:  -153.44957082484905   -1.53450e+02   0.00000e+00 
   @DF-RHF iter   1:  -154.00361456792501   -5.54044e-01   9.36452e-04 DIIS/ADIIS
   @DF-RHF iter   2:  -154.11538106984420   -1.11767e-01   4.94326e-04 DIIS/ADIIS
   @DF-RHF iter   3:  -154.14316236541870   -2.77813e-02   8.47236e-05 DIIS
   @DF-RHF iter   4:  -154.14474711045017   -1.58475e-03   3.26748e-05 DIIS
   @DF-RHF iter   5:  -154.14494000318589   -1.92893e-04   6.22753e-06 DIIS
   @DF-RHF iter   6:  -154.14495049275399   -1.04896e-05   1.44202e-06 DIIS
   @DF-RHF iter   7:  -154.14495125103880   -7.58285e-07   4.10512e-07 DIIS
   @DF-RHF iter   8:  -154.14495130811210   -5.70733e-08   1.30403e-07 DIIS
   @DF-RHF iter   9:  -154.14495131444619   -6.33409e-09   3.35437e-08 DIIS
   @DF-RHF iter  10:  -154.14495131489170   -4.45510e-10   6.46667e-09 DIIS
  Energy and wave function converged.


  ==> Post-Iterations <==

    Orbital Energies [Eh]
    ---------------------

    Doubly Occupied:                                                      

       1A    -20.555973     2A    -11.272334     3A    -11.216808  
       4A     -1.358220     5A     -1.014835     6A     -0.848159  
       7A     -0.686909     8A     -0.625172     9A     -0.609670  
      10A     -0.545449    11A     -0.527099    12A     -0.482957  
      13A     -0.443108  

    Virtual:                                                              

      14A      0.021500    15A      0.033307    16A      0.036300  
      17A      0.038262    18A      0.050102    19A      0.052309  
      20A      0.053205    21A      0.063686    22A      0.070385  
      23A      0.075981    24A      0.078963    25A      0.087966  
      26A      0.091025    27A      0.111269    28A      0.113029  
      29A      0.116747    30A      0.118862    31A      0.126921  
      32A      0.134258    33A      0.135678    34A      0.142113  
      35A      0.149209    36A      0.151919    37A      0.154813  
      38A      0.164310    39A      0.166598    40A      0.178241  
      41A      0.183228    42A      0.189371    43A      0.206350  
      44A      0.212961    45A      0.220666    46A      0.235999  
      47A      0.241190    48A      0.248245    49A      0.250631  
      50A      0.262865    51A      0.275649    52A      0.276499  
      53A      0.287963    54A      0.289960    55A      0.299344  
      56A      0.305340    57A      0.314370    58A      0.315637  
      59A      0.324874    60A      0.326549    61A      0.333140  
      62A      0.335108    63A      0.342955    64A      0.344498  
      65A      0.350329    66A      0.353388    67A      0.358495  
      68A      0.360302    69A      0.369162    70A      0.373991  
      71A      0.382878    72A      0.389338    73A      0.392708  
      74A      0.402943    75A      0.406597    76A      0.419105  
      77A      0.425102    78A      0.426433    79A      0.432389  
      80A      0.437440    81A      0.438828    82A      0.443133  
      83A      0.454751    84A      0.458387    85A      0.462582  
      86A      0.466037    87A      0.472343    88A      0.484102  
      89A      0.492322    90A      0.500745    91A      0.504883  
      92A      0.508479    93A      0.511139    94A      0.516228  
      95A      0.524081    96A      0.525909    97A      0.529928  
      98A      0.540167    99A      0.541558   100A      0.551714  
     101A      0.559134   102A      0.565035   103A      0.577234  
     104A      0.581369   105A      0.586056   106A      0.602763  
     107A      0.604607   108A      0.613463   109A      0.623521  
     110A      0.627471   111A      0.635820   112A      0.641800  
     113A      0.648412   114A      0.655189   115A      0.658220  
     116A      0.659741   117A      0.676381   118A      0.683045  
     119A      0.689919   120A      0.704191   121A      0.710107  
     122A      0.714371   123A      0.729220   124A      0.739408  
     125A      0.747614   126A      0.762678   127A      0.783538  
     128A      0.804048   129A      0.809235   130A      0.809774  
     131A      0.818147   132A      0.824349   133A      0.831495  
     134A      0.842035   135A      0.846603   136A      0.871163  
     137A      0.883657   138A      0.885083   139A      0.894004  
     140A      0.905792   141A      0.911235   142A      0.920238  
     143A      0.939452   144A      0.940071   145A      0.951129  
     146A      0.956868   147A      0.974378   148A      0.978270  
     149A      0.980738   150A      0.985893   151A      0.992345  
     152A      1.005007   153A      1.016431   154A      1.022289  
     155A      1.023185   156A      1.039914   157A      1.046099  
     158A      1.050181   159A      1.057039   160A      1.063937  
     161A      1.070121   162A      1.082112   163A      1.084889  
     164A      1.105146   165A      1.106424   166A      1.112464  
     167A      1.113225   168A      1.118434   169A      1.127127  
     170A      1.135118   171A      1.140855   172A      1.147423  
     173A      1.159514   174A      1.163304   175A      1.165785  
     176A      1.170494   177A      1.180655   178A      1.190612  
     179A      1.192798   180A      1.207407   181A      1.213058  
     182A      1.219487   183A      1.220704   184A      1.233009  
     185A      1.241978   186A      1.245868   187A      1.250652  
     188A      1.255896   189A      1.263604   190A      1.270026  
     191A      1.284559   192A      1.297342   193A      1.304536  
     194A      1.312064   195A      1.316485   196A      1.326535  
     197A      1.336165   198A      1.343849   199A      1.348124  
     200A      1.358595   201A      1.365647   202A      1.381942  
     203A      1.393821   204A      1.398304   205A      1.405277  
     206A      1.412032   207A      1.423691   208A      1.429216  
     209A      1.441367   210A      1.449628   211A      1.463906  
     212A      1.476635   213A      1.484636   214A      1.497140  
     215A      1.508863   216A      1.513383   217A      1.516372  
     218A      1.523584   219A      1.538857   220A      1.543164  
     221A      1.555573   222A      1.557580   223A      1.567667  
     224A      1.585937   225A      1.602714   226A      1.610291  
     227A      1.630639   228A      1.633877   229A      1.643282  
     230A      1.654531   231A      1.662508   232A      1.677470  
     233A      1.689686   234A      1.705468   235A      1.707779  
     236A      1.714623   237A      1.722179   238A      1.729247  
     239A      1.739375   240A      1.745786   241A      1.767651  
     242A      1.781196   243A      1.786889   244A      1.793172  
     245A      1.795682   246A      1.813156   247A      1.820543  
     248A      1.828279   249A      1.846523   250A      1.857232  
     251A      1.874082   252A      1.877394   253A      1.886375  
     254A      1.916331   255A      1.924887   256A      1.928118  
     257A      1.935553   258A      1.955282   259A      1.966508  
     260A      1.974233   261A      1.985447   262A      1.996038  
     263A      2.006226   264A      2.039938   265A      2.040981  
     266A      2.048413   267A      2.072806   268A      2.079278  
     269A      2.085328   270A      2.094542   271A      2.103508  
     272A      2.117786   273A      2.127414   274A      2.135963  
     275A      2.139925   276A      2.152637   277A      2.159039  
     278A      2.199987   279A      2.205304   280A      2.218705  
     281A      2.226247   282A      2.233299   283A      2.261190  
     284A      2.272710   285A      2.276939   286A      2.295357  
     287A      2.300394   288A      2.312896   289A      2.318252  
     290A      2.337911   291A      2.349817   292A      2.361383  
     293A      2.374125   294A      2.400255   295A      2.415170  
     296A      2.452534   297A      2.468240   298A      2.476020  
     299A      2.494331   300A      2.504264   301A      2.513991  
     302A      2.528683   303A      2.569204   304A      2.595064  
     305A      2.617200   306A      2.647215   307A      2.680482  
     308A      2.685784   309A      2.720374   310A      2.729294  
     311A      2.749463   312A      2.767631   313A      2.787143  
     314A      2.808772   315A      2.827056   316A      2.840256  
     317A      2.847914   318A      2.877796   319A      2.886987  
     320A      2.892637   321A      2.948375   322A      2.963783  
     323A      2.973081   324A      3.014256   325A      3.039706  
     326A      3.074967   327A      3.092017   328A      3.122739  
     329A      3.137332   330A      3.166002   331A      3.199944  
     332A      3.215465   333A      3.244132   334A      3.257141  
     335A      3.284732   336A      3.321153   337A      3.356484  
     338A      3.377838   339A      3.415206   340A      3.426705  
     341A      3.462204   342A      3.514050   343A      3.525443  
     344A      3.529671   345A      3.553660   346A      3.571304  
     347A      3.606585   348A      3.651935   349A      3.673042  
     350A      3.687517   351A      3.702725   352A      3.712027  
     353A      3.736268   354A      3.751216   355A      3.769741  
     356A      3.794878   357A      3.804785   358A      3.833193  
     359A      3.838791   360A      3.873694   361A      3.891810  
     362A      3.899411   363A      3.972073   364A      3.981623  
     365A      3.992791   366A      4.021282   367A      4.029799  
     368A      4.047489   369A      4.061208   370A      4.085174  
     371A      4.113578   372A      4.149733   373A      4.155668  
     374A      4.161061   375A      4.192823   376A      4.209658  
     377A      4.218456   378A      4.221933   379A      4.231200  
     380A      4.246579   381A      4.254094   382A      4.281089  
     383A      4.296990   384A      4.318542   385A      4.330210  
     386A      4.350366   387A      4.362257   388A      4.376598  
     389A      4.397133   390A      4.424336   391A      4.443093  
     392A      4.453259   393A      4.479567   394A      4.488688  
     395A      4.513784   396A      4.515560   397A      4.538639  
     398A      4.542013   399A      4.574901   400A      4.594930  
     401A      4.607278   402A      4.608887   403A      4.633575  
     404A      4.646657   405A      4.667780   406A      4.674406  
     407A      4.691213   408A      4.697028   409A      4.725427  
     410A      4.732911   411A      4.758637   412A      4.767500  
     413A      4.785850   414A      4.794692   415A      4.817424  
     416A      4.836428   417A      4.843385   418A      4.871256  
     419A      4.893926   420A      4.917036   421A      4.925289  
     422A      4.941210   423A      4.964560   424A      4.974965  
     425A      4.994294   426A      5.013466   427A      5.030891  
     428A      5.038235   429A      5.045753   430A      5.059162  
     431A      5.069856   432A      5.099317   433A      5.113824  
     434A      5.126169   435A      5.142757   436A      5.166539  
     437A      5.195508   438A      5.202428   439A      5.236987  
     440A      5.251087   441A      5.264394   442A      5.287864  
     443A      5.300606   444A      5.302730   445A      5.334652  
     446A      5.368978   447A      5.397624   448A      5.404875  
     449A      5.424755   450A      5.434577   451A      5.442086  
     452A      5.465385   453A      5.482149   454A      5.504194  
     455A      5.526541   456A      5.531091   457A      5.553737  
     458A      5.586309   459A      5.592345   460A      5.609461  
     461A      5.619020   462A      5.634520   463A      5.657119  
     464A      5.677176   465A      5.687953   466A      5.699120  
     467A      5.708547   468A      5.721785   469A      5.745845  
     470A      5.779417   471A      5.785485   472A      5.812114  
     473A      5.840940   474A      5.853274   475A      5.885085  
     476A      5.910699   477A      5.992852   478A      6.042969  
     479A      6.061262   480A      6.075221   481A      6.103402  
     482A      6.111914   483A      6.159403   484A      6.195973  
     485A      6.217341   486A      6.227217   487A      6.239962  
     488A      6.269336   489A      6.322335   490A      6.332965  
     491A      6.358504   492A      6.405718   493A      6.451187  
     494A      6.519033   495A      6.651652   496A      6.706272  
     497A      6.768394   498A      6.817457   499A      6.847781  
     500A      6.886515   501A      6.903244   502A      6.980342  
     503A      7.026959   504A      7.041500   505A      7.052060  
     506A      7.113439   507A      7.151388   508A      7.243810  
     509A      7.296498   510A      7.425121   511A      7.462849  
     512A      7.566189   513A      7.610336   514A      7.629687  
     515A      7.719922   516A      7.819391   517A      7.843180  
     518A      7.881949   519A      7.903973   520A      7.950066  
     521A      7.989235   522A      8.020164   523A      8.073131  
     524A      8.150755   525A      8.208342   526A      8.253863  
     527A      8.304696   528A      8.350181   529A      8.380413  
     530A      8.461699   531A      8.554024   532A      8.620851  
     533A      8.738317   534A      8.966376   535A      9.053433  
     536A     10.050038   537A     10.258817   538A     10.347159  
     539A     10.589505   540A     10.761962   541A     10.961574  
     542A     11.058031   543A     12.146179   544A     12.775918  
     545A     13.289314   546A     14.127221   547A     17.479749  
     548A     17.920116   549A     18.801943   550A     53.444308  
     551A     54.637877   552A     68.421898  

    Final Occupation by Irrep:
              A 
    DOCC [    13 ]
    NA   [    13 ]
    NB   [    13 ]

  @DF-RHF Final Energy:  -154.14495131489170

   => Energetics <=

    Nuclear Repulsion Energy =             82.0794934895352668
    One-Electron Energy =                -372.0755009397411754
    Two-Electron Energy =                 135.8510561353142236
    Total Energy =                       -154.1449513148916992

Computation Completed


Properties will be evaluated at   0.000000,   0.000000,   0.000000 [a0]

Properties computed using the SCF density matrix


 Multipole Moments:

 ------------------------------------------------------------------------------------
     Multipole            Electronic (a.u.)      Nuclear  (a.u.)        Total (a.u.)
 ------------------------------------------------------------------------------------

 L = 1.  Multiply by 2.5417464519 to convert [e a0] to [Debye]
 Dipole X            :         75.5629435          -75.6977137           -0.1347702
 Dipole Y            :          2.1241033           -2.8174702           -0.6933669
 Dipole Z            :         -0.1589686           -0.0063268           -0.1652954
 Magnitude           :                                                    0.7254262

 ------------------------------------------------------------------------------------

*** tstop() called on ivy at Thu Feb 27 15:00:19 2025
Module time:
	user time   =      16.23 seconds =       0.27 minutes
	system time =       1.06 seconds =       0.02 minutes
	total time  =         10 seconds =       0.17 minutes
Total time:
	user time   =      16.23 seconds =       0.27 minutes
	system time =       1.06 seconds =       0.02 minutes
	total time  =         10 seconds =       0.17 minutes

*** tstart() called on ivy
*** at Thu Feb 27 15:00:19 2025


  //>>>>>>>>>>>>>>>>>>>>>>>>>>>>>>>>>>>//
  //               DFMP2               //
  //<<<<<<<<<<<<<<<<<<<<<<<<<<<<<<<<<<<//

   => Loading Basis Set <=

    Name: (AUG-CC-PVTZ AUX)
    Role: RIFIT
    Keyword: DF_BASIS_MP2
    atoms 1-2, 10-11 entry C          line   148 file /home/kchung25/miniconda3/envs/p4env/share/psi4/basis/aug-cc-pvtz-ri.gbs 
    atoms 3, 12      entry O          line   264 file /home/kchung25/miniconda3/envs/p4env/share/psi4/basis/aug-cc-pvtz-ri.gbs 
    atoms 4-9, 13-18 entry H          line    30 file /home/kchung25/miniconda3/envs/p4env/share/psi4/basis/aug-cc-pvtz-ri.gbs 

	 --------------------------------------------------------
	                          DF-MP2                         
	      2nd-Order Density-Fitted Moller-Plesset Theory     
	              RMP2 Wavefunction,   2 Threads             
	                                                         
	        Rob Parrish, Justin Turney, Andy Simmonett,      
	           Ed Hohenstein, and C. David Sherrill          
	 --------------------------------------------------------

   => Auxiliary Basis Set <=

  Basis Set: (AUG-CC-PVTZ AUX)
    Blend: AUG-CC-PVTZ-RI
    Number of shells: 336
    Number of basis functions: 1188
    Number of Cartesian functions: 1476
    Spherical Harmonics?: true
    Max angular momentum: 4

	 --------------------------------------------------------
	                 NBF =   552, NAUX =  1188
	 --------------------------------------------------------
	   CLASS    FOCC     OCC    AOCC    AVIR     VIR    FVIR
	   PAIRS       0      13      13     539     539       0
	 --------------------------------------------------------

	-----------------------------------------------------------
	 ==================> DF-MP2 Energies <==================== 
	-----------------------------------------------------------
	 Reference Energy          =    -154.1449513148916992 [Eh]
	 Singles Energy            =      -0.0000000000000000 [Eh]
	 Same-Spin Energy          =      -0.1483754615802813 [Eh]
	 Opposite-Spin Energy      =      -0.5194231049539021 [Eh]
	 Correlation Energy        =      -0.6677985665341835 [Eh]
	 Total Energy              =    -154.8127498814258729 [Eh]
	-----------------------------------------------------------
	 ================> DF-SCS-MP2 Energies <================== 
	-----------------------------------------------------------
	 SCS Same-Spin Scale       =       0.3333333333333333 [-]
	 SCS Opposite-Spin Scale   =       1.2000000000000000 [-]
	 SCS Same-Spin Energy      =      -0.0494584871934271 [Eh]
	 SCS Opposite-Spin Energy  =      -0.6233077259446825 [Eh]
	 SCS Correlation Energy    =      -0.6727662131381096 [Eh]
	 SCS Total Energy          =    -154.8177175280298172 [Eh]
	-----------------------------------------------------------


*** tstop() called on ivy at Thu Feb 27 15:00:23 2025
Module time:
	user time   =       5.47 seconds =       0.09 minutes
	system time =       0.74 seconds =       0.01 minutes
	total time  =          4 seconds =       0.07 minutes
Total time:
	user time   =      21.70 seconds =       0.36 minutes
	system time =       1.80 seconds =       0.03 minutes
	total time  =         14 seconds =       0.23 minutes

    Psi4 stopped on: Thursday, 27 February 2025 03:00PM
    Psi4 wall time for execution: 0:00:13.26


    -----------------------------------------------------------------------
          Psi4: An Open-Source Ab Initio Electronic Structure Package
                               Psi4 1.9.1 release

                         Git: Rev {} zzzzzzz 


    D. G. A. Smith, L. A. Burns, A. C. Simmonett, R. M. Parrish,
    M. C. Schieber, R. Galvelis, P. Kraus, H. Kruse, R. Di Remigio,
    A. Alenaizan, A. M. James, S. Lehtola, J. P. Misiewicz, M. Scheurer,
    R. A. Shaw, J. B. Schriber, Y. Xie, Z. L. Glick, D. A. Sirianni,
    J. S. O'Brien, J. M. Waldrop, A. Kumar, E. G. Hohenstein,
    B. P. Pritchard, B. R. Brooks, H. F. Schaefer III, A. Yu. Sokolov,
    K. Patkowski, A. E. DePrince III, U. Bozkaya, R. A. King,
    F. A. Evangelista, J. M. Turney, T. D. Crawford, C. D. Sherrill,
    J. Chem. Phys. 152(18) 184108 (2020). https://doi.org/10.1063/5.0006002

                            Additional Code Authors
    E. T. Seidl, C. L. Janssen, E. F. Valeev, M. L. Leininger,
    J. F. Gonthier, R. M. Richard, H. R. McAlexander, M. Saitow, X. Wang,
    P. Verma, M. H. Lechner, A. Jiang, S. Behnle, A. G. Heide,
    M. F. Herbst, and D. L. Poole

             Previous Authors, Complete List of Code Contributors,
                       and Citations for Specific Modules
    https://github.com/psi4/psi4/blob/master/codemeta.json
    https://github.com/psi4/psi4/graphs/contributors
    http://psicode.org/psi4manual/master/introduction.html#citing-psifour

    -----------------------------------------------------------------------


    Psi4 started on: Thursday, 27 February 2025 03:00PM

    Process ID: 3729
    Host:       ivy
    PSIDATADIR: /home/kchung25/miniconda3/envs/p4env/share/psi4
    Memory:     9.3 GiB
    Threads:    2
    
  ==> Input QCSchema <==

--------------------------------------------------------------------------
{'driver': 'energy',
 'extras': {'psiapi': True, 'wfn_qcvars_only': True},
 'id': None,
 'keywords': {'SCF_TYPE': 'DF', 'function_kwargs': {}},
 'model': {'basis': 'aug-cc-pvtz', 'method': 'mp2'},
 'molecule': {'atom_labels': ['', '', '', '', '', '', '', '', '', '', '', '', '', '', '', '', '', ''],
              'atomic_numbers': [6, 6, 8, 1, 1, 1, 1, 1, 1, 6, 6, 8, 1, 1, 1, 1, 1, 1],
              'extras': {},
              'fix_com': True,
              'fix_orientation': True,
              'fix_symmetry': 'c1',
              'fragment_charges': [0.0, 0.0],
              'fragment_multiplicities': [1, 1],
              'fragments': [[0, 1, 2, 3, 4, 5, 6, 7, 8], [9, 10, 11, 12, 13, 14, 15, 16, 17]],
              'geometry': [4.352288710777939, 1.4533826939112393, 1.1312335223999415, 3.3467748880524555,
                           -1.1545962064889765, 0.5798019903607199, 2.0729634192128463, -1.2706990899109802,
                           -1.80656305812868, 3.25097144267012, -0.7695947440449514, -3.097189310032613,
                           5.252323690358742, 1.489737245112797, 2.979211818294155, 2.819769955910902,
                           2.819153905194003, 1.1135513550440326, 5.7571394583351685, 2.0049918602062538,
                           -0.2677269488242378, 1.9209236140630117, -1.6828332400643284, 1.957045728951138,
                           4.845671635695346, -2.565741631770108, 0.6340068945433524, -3.51443705908145,
                           -2.053567270261147, 1.0999094221443524, -3.769822206580323, 0.313424305990059,
                           -0.4790663597909394, -1.4804945946331824, 1.6966112332450418, -0.6079967041525508,
                           -0.21719000305111913, 0.5898345463607755, -1.333496578786069, -5.310374187206681,
                           -3.0504620521284176, 1.215963172687094, -2.9065726357576818, -1.575612069431977,
                           3.0035458216116755, -2.129927323538647, -3.325377519133897, 0.2664910679381884,
                           -5.153169760555969, 1.583186091742812, 0.3539060190496166, -4.430967458011375,
                           -0.1710712369593208, -2.373821046468611],
              'mass_numbers': [12, 12, 16, 1, 1, 1, 1, 1, 1, 12, 12, 16, 1, 1, 1, 1, 1, 1],
              'masses': [12.0, 12.0, 15.99491461957, 1.00782503223, 1.00782503223, 1.00782503223, 1.00782503223,
                         1.00782503223, 1.00782503223, 12.0, 12.0, 15.99491461957, 1.00782503223, 1.00782503223,
                         1.00782503223, 1.00782503223, 1.00782503223, 1.00782503223],
              'molecular_charge': 0.0,
              'molecular_multiplicity': 1,
              'name': 'dimer',
              'provenance': {'creator': 'QCElemental',
                             'routine': 'qcelemental.molparse.from_string',
                             'version': '0.27.1'},
              'real': [True, True, True, True, True, True, True, True, True, False, False, False, False, False, False,
                       False, False, False],
              'schema_name': 'qcschema_molecule',
              'schema_version': 2,
              'symbols': ['C', 'C', 'O', 'H', 'H', 'H', 'H', 'H', 'H', 'C', 'C', 'O', 'H', 'H', 'H', 'H', 'H', 'H'],
              'validated': True},
 'protocols': {'stdout': True},
 'provenance': {'creator': 'QCElemental', 'routine': 'qcelemental.models.results', 'version': '0.27.1'},
 'schema_name': 'qcschema_input',
 'schema_version': 1}
--------------------------------------------------------------------------

Scratch directory: /tmp/
   => Libint2 <=

    Primary   basis highest AM E, G, H:  6, 6, 3
    Auxiliary basis highest AM E, G, H:  7, 7, 4
    Onebody   basis highest AM E, G, H:  -, -, -
    Solid Harmonics ordering:            Gaussian

*** tstart() called on ivy
*** at Thu Feb 27 15:00:23 2025

   => Loading Basis Set <=

    Name: AUG-CC-PVTZ
    Role: ORBITAL
    Keyword: BASIS
    atoms 1-2, 10-11 entry C          line   239 file /home/kchung25/miniconda3/envs/p4env/share/psi4/basis/aug-cc-pvtz.gbs 
    atoms 3, 12      entry O          line   331 file /home/kchung25/miniconda3/envs/p4env/share/psi4/basis/aug-cc-pvtz.gbs 
    atoms 4-9, 13-18 entry H          line    40 file /home/kchung25/miniconda3/envs/p4env/share/psi4/basis/aug-cc-pvtz.gbs 


         ---------------------------------------------------------
                                   SCF
               by Justin Turney, Rob Parrish, Andy Simmonett
                          and Daniel G. A. Smith
                              RHF Reference
                        2 Threads,   9536 MiB Core
         ---------------------------------------------------------

  ==> Geometry <==

    Molecular point group: c1
    Full point group: C1

    Geometry (in Bohr), charge = 0, multiplicity = 1:

       Center              X                  Y                   Z               Mass       
    ------------   -----------------  -----------------  -----------------  -----------------
         C            4.352288710778     1.453382693911     1.131233522400    12.000000000000
         C            3.346774888052    -1.154596206489     0.579801990361    12.000000000000
         O            2.072963419213    -1.270699089911    -1.806563058129    15.994914619570
         H            3.250971442670    -0.769594744045    -3.097189310033     1.007825032230
         H            5.252323690359     1.489737245113     2.979211818294     1.007825032230
         H            2.819769955911     2.819153905194     1.113551355044     1.007825032230
         H            5.757139458335     2.004991860206    -0.267726948824     1.007825032230
         H            1.920923614063    -1.682833240064     1.957045728951     1.007825032230
         H            4.845671635695    -2.565741631770     0.634006894543     1.007825032230
      Gh(C)          -3.514437059081    -2.053567270261     1.099909422144    12.000000000000
      Gh(C)          -3.769822206580     0.313424305990    -0.479066359791    12.000000000000
      Gh(O)          -1.480494594633     1.696611233245    -0.607996704153    15.994914619570
      Gh(H)          -0.217190003051     0.589834546361    -1.333496578786     1.007825032230
      Gh(H)          -5.310374187207    -3.050462052128     1.215963172687     1.007825032230
      Gh(H)          -2.906572635758    -1.575612069432     3.003545821612     1.007825032230
      Gh(H)          -2.129927323539    -3.325377519134     0.266491067938     1.007825032230
      Gh(H)          -5.153169760556     1.583186091743     0.353906019050     1.007825032230
      Gh(H)          -4.430967458011    -0.171071236959    -2.373821046469     1.007825032230

  Running in c1 symmetry.

  Rotational constants: A =      0.17253  B =      0.05375  C =      0.05036 [cm^-1]
  Rotational constants: A =   5172.30899  B =   1611.49780  C =   1509.62540 [MHz]
  Nuclear repulsion =   81.897605397406679

  Charge       = 0
  Multiplicity = 1
  Electrons    = 26
  Nalpha       = 13
  Nbeta        = 13

  ==> Algorithm <==

  SCF Algorithm Type is DF.
  DIIS enabled.
  MOM disabled.
  Fractional occupation disabled.
  Guess Type is SAD.
  Energy threshold   = 1.00e-08
  Density threshold  = 1.00e-08
  Integral threshold = 1.00e-12

  ==> Primary Basis <==

  Basis Set: AUG-CC-PVTZ
    Blend: AUG-CC-PVTZ
    Number of shells: 192
    Number of basis functions: 552
    Number of Cartesian functions: 630
    Spherical Harmonics?: true
    Max angular momentum: 3

   => Loading Basis Set <=

    Name: (AUG-CC-PVTZ AUX)
    Role: JKFIT
    Keyword: DF_BASIS_SCF
    atoms 1-2, 10-11 entry C          line   162 file /home/kchung25/miniconda3/envs/p4env/share/psi4/basis/aug-cc-pvtz-jkfit.gbs 
    atoms 3, 12      entry O          line   286 file /home/kchung25/miniconda3/envs/p4env/share/psi4/basis/aug-cc-pvtz-jkfit.gbs 
    atoms 4-9, 13-18 entry H          line    70 file /home/kchung25/miniconda3/envs/p4env/share/psi4/basis/aug-cc-pvtz-jkfit.gbs 

  ==> Integral Setup <==

  DFHelper Memory: AOs need 2.640 GiB; user supplied 6.985 GiB. 
  Using in-core AOs.

  ==> MemDFJK: Density-Fitted J/K Matrices <==

    J tasked:                   Yes
    K tasked:                   Yes
    wK tasked:                   No
    OpenMP threads:               2
    Memory [MiB]:              7152
    Algorithm:                 Core
    Schwarz Cutoff:           1E-12
    Mask sparsity (%):       3.9573
    Fitting Condition:        1E-10

   => Auxiliary Basis Set <=

  Basis Set: (AUG-CC-PVTZ AUX)
    Blend: AUG-CC-PVTZ-JKFIT
    Number of shells: 348
    Number of basis functions: 1176
    Number of Cartesian functions: 1446
    Spherical Harmonics?: true
    Max angular momentum: 4

  Minimum eigenvalue in the overlap matrix is 7.6265419109E-06.
  Reciprocal condition number of the overlap matrix is 3.8980874977E-07.
    Using symmetric orthogonalization.

  ==> Pre-Iterations <==

  SCF Guess: Superposition of Atomic Densities via on-the-fly atomic UHF (no occupation information).

   -------------------------
    Irrep   Nso     Nmo    
   -------------------------
     A        552     552 
   -------------------------
    Total     552     552
   -------------------------

  ==> Iterations <==

                           Total Energy        Delta E     RMS |[F,P]|

   @DF-RHF iter SAD:  -153.43065417869522   -1.53431e+02   0.00000e+00 
   @DF-RHF iter   1:  -154.00386656518106   -5.73212e-01   9.37036e-04 DIIS/ADIIS
   @DF-RHF iter   2:  -154.11532914411896   -1.11463e-01   4.95879e-04 DIIS/ADIIS
   @DF-RHF iter   3:  -154.14315407832814   -2.78249e-02   8.51959e-05 DIIS
   @DF-RHF iter   4:  -154.14473867343435   -1.58460e-03   3.29269e-05 DIIS
   @DF-RHF iter   5:  -154.14493448536996   -1.95812e-04   6.19080e-06 DIIS
   @DF-RHF iter   6:  -154.14494480201364   -1.03166e-05   1.41931e-06 DIIS
   @DF-RHF iter   7:  -154.14494553243051   -7.30417e-07   4.01906e-07 DIIS
   @DF-RHF iter   8:  -154.14494558698800   -5.45575e-08   1.28322e-07 DIIS
   @DF-RHF iter   9:  -154.14494559314988   -6.16188e-09   3.30892e-08 DIIS
   @DF-RHF iter  10:  -154.14494559358906   -4.39172e-10   6.36950e-09 DIIS
  Energy and wave function converged.


  ==> Post-Iterations <==

    Orbital Energies [Eh]
    ---------------------

    Doubly Occupied:                                                      

       1A    -20.553357     2A    -11.272944     3A    -11.217541  
       4A     -1.352667     5A     -1.016937     6A     -0.848661  
       7A     -0.684504     8A     -0.622409     9A     -0.609819  
      10A     -0.545554    11A     -0.525189    12A     -0.484035  
      13A     -0.444947  

    Virtual:                                                              

      14A      0.025370    15A      0.032950    16A      0.036563  
      17A      0.038038    18A      0.049995    19A      0.053041  
      20A      0.054488    21A      0.062348    22A      0.068391  
      23A      0.078952    24A      0.080508    25A      0.087282  
      26A      0.099163    27A      0.111538    28A      0.114302  
      29A      0.118551    30A      0.123547    31A      0.127582  
      32A      0.130978    33A      0.138687    34A      0.143654  
      35A      0.145278    36A      0.153088    37A      0.160224  
      38A      0.164493    39A      0.171134    40A      0.177411  
      41A      0.188130    42A      0.193227    43A      0.204613  
      44A      0.219200    45A      0.221605    46A      0.228912  
      47A      0.242316    48A      0.245529    49A      0.256688  
      50A      0.264171    51A      0.276921    52A      0.283004  
      53A      0.288881    54A      0.294885    55A      0.300697  
      56A      0.306673    57A      0.312857    58A      0.317465  
      59A      0.323106    60A      0.328383    61A      0.333517  
      62A      0.339911    63A      0.344328    64A      0.346019  
      65A      0.349612    66A      0.353010    67A      0.357934  
      68A      0.364168    69A      0.371170    70A      0.384233  
      71A      0.388187    72A      0.395656    73A      0.404877  
      74A      0.410740    75A      0.414827    76A      0.418763  
      77A      0.419653    78A      0.424005    79A      0.433782  
      80A      0.438911    81A      0.446010    82A      0.451510  
      83A      0.453730    84A      0.460355    85A      0.466240  
      86A      0.472921    87A      0.473617    88A      0.483608  
      89A      0.493028    90A      0.495701    91A      0.500093  
      92A      0.504777    93A      0.511141    94A      0.516689  
      95A      0.523216    96A      0.526941    97A      0.537631  
      98A      0.542975    99A      0.552718   100A      0.559155  
     101A      0.562727   102A      0.570687   103A      0.576594  
     104A      0.582786   105A      0.584526   106A      0.601478  
     107A      0.606606   108A      0.609860   109A      0.624859  
     110A      0.627091   111A      0.636862   112A      0.637892  
     113A      0.650408   114A      0.656493   115A      0.665470  
     116A      0.671035   117A      0.682786   118A      0.691607  
     119A      0.696356   120A      0.697616   121A      0.717482  
     122A      0.727812   123A      0.738832   124A      0.748658  
     125A      0.765548   126A      0.770769   127A      0.778149  
     128A      0.793456   129A      0.810159   130A      0.814021  
     131A      0.829077   132A      0.835734   133A      0.846921  
     134A      0.853212   135A      0.866091   136A      0.870650  
     137A      0.882242   138A      0.886625   139A      0.894227  
     140A      0.901699   141A      0.923280   142A      0.937258  
     143A      0.944105   144A      0.947502   145A      0.958376  
     146A      0.961052   147A      0.965306   148A      0.975462  
     149A      0.981287   150A      0.996025   151A      0.999856  
     152A      1.006925   153A      1.017203   154A      1.020049  
     155A      1.031578   156A      1.041276   157A      1.045082  
     158A      1.057642   159A      1.061945   160A      1.068371  
     161A      1.072889   162A      1.087057   163A      1.089852  
     164A      1.098429   165A      1.105344   166A      1.111363  
     167A      1.119644   168A      1.121601   169A      1.124441  
     170A      1.137190   171A      1.141856   172A      1.150149  
     173A      1.164985   174A      1.169468   175A      1.171796  
     176A      1.175499   177A      1.179481   178A      1.185304  
     179A      1.194173   180A      1.206051   181A      1.211145  
     182A      1.219481   183A      1.226009   184A      1.240390  
     185A      1.247242   186A      1.252189   187A      1.259508  
     188A      1.264830   189A      1.274054   190A      1.278776  
     191A      1.292584   192A      1.295045   193A      1.306904  
     194A      1.310391   195A      1.326133   196A      1.331490  
     197A      1.342801   198A      1.352893   199A      1.361652  
     200A      1.366967   201A      1.376020   202A      1.385948  
     203A      1.398322   204A      1.405258   205A      1.414712  
     206A      1.430364   207A      1.436791   208A      1.442361  
     209A      1.454499   210A      1.464724   211A      1.470306  
     212A      1.479774   213A      1.486813   214A      1.497586  
     215A      1.503735   216A      1.511140   217A      1.515490  
     218A      1.518949   219A      1.535148   220A      1.552453  
     221A      1.562327   222A      1.578289   223A      1.580582  
     224A      1.584496   225A      1.604272   226A      1.612657  
     227A      1.632181   228A      1.643056   229A      1.649455  
     230A      1.666473   231A      1.671201   232A      1.679370  
     233A      1.690400   234A      1.699756   235A      1.718344  
     236A      1.721636   237A      1.734487   238A      1.736154  
     239A      1.746514   240A      1.760859   241A      1.764523  
     242A      1.786462   243A      1.788209   244A      1.806529  
     245A      1.822808   246A      1.840962   247A      1.847254  
     248A      1.852425   249A      1.860427   250A      1.869987  
     251A      1.883897   252A      1.894502   253A      1.919204  
     254A      1.922240   255A      1.933482   256A      1.941075  
     257A      1.950323   258A      1.969065   259A      1.976029  
     260A      1.993507   261A      1.999443   262A      2.014059  
     263A      2.024629   264A      2.036712   265A      2.039673  
     266A      2.040966   267A      2.063195   268A      2.069567  
     269A      2.080183   270A      2.103680   271A      2.123012  
     272A      2.125683   273A      2.132585   274A      2.159613  
     275A      2.167114   276A      2.177627   277A      2.189311  
     278A      2.204274   279A      2.216655   280A      2.223921  
     281A      2.239379   282A      2.251552   283A      2.260156  
     284A      2.272920   285A      2.279056   286A      2.297969  
     287A      2.309969   288A      2.314745   289A      2.328716  
     290A      2.342214   291A      2.352568   292A      2.373713  
     293A      2.389814   294A      2.405808   295A      2.432582  
     296A      2.445067   297A      2.470868   298A      2.489202  
     299A      2.511264   300A      2.513985   301A      2.537731  
     302A      2.560870   303A      2.581709   304A      2.627113  
     305A      2.646386   306A      2.651263   307A      2.671004  
     308A      2.676608   309A      2.726549   310A      2.742206  
     311A      2.750320   312A      2.768157   313A      2.775913  
     314A      2.795246   315A      2.827800   316A      2.847802  
     317A      2.865741   318A      2.874067   319A      2.886531  
     320A      2.919633   321A      2.946783   322A      2.982099  
     323A      2.995552   324A      3.007222   325A      3.040588  
     326A      3.082543   327A      3.093660   328A      3.106636  
     329A      3.117725   330A      3.158967   331A      3.179560  
     332A      3.205356   333A      3.251609   334A      3.265396  
     335A      3.285871   336A      3.312119   337A      3.349086  
     338A      3.429822   339A      3.467831   340A      3.472669  
     341A      3.515842   342A      3.529146   343A      3.546925  
     344A      3.548669   345A      3.621620   346A      3.633075  
     347A      3.639974   348A      3.669350   349A      3.686541  
     350A      3.697302   351A      3.703865   352A      3.731618  
     353A      3.754058   354A      3.773162   355A      3.783551  
     356A      3.810200   357A      3.824253   358A      3.850143  
     359A      3.879224   360A      3.885938   361A      3.931407  
     362A      3.961375   363A      3.969209   364A      3.998313  
     365A      4.018192   366A      4.027014   367A      4.030960  
     368A      4.072410   369A      4.094251   370A      4.119945  
     371A      4.141297   372A      4.151199   373A      4.158608  
     374A      4.166266   375A      4.171518   376A      4.184603  
     377A      4.213468   378A      4.224196   379A      4.228229  
     380A      4.242973   381A      4.259615   382A      4.275341  
     383A      4.290535   384A      4.293812   385A      4.319921  
     386A      4.336447   387A      4.346983   388A      4.388332  
     389A      4.414371   390A      4.434498   391A      4.445660  
     392A      4.457734   393A      4.479573   394A      4.505058  
     395A      4.516027   396A      4.517318   397A      4.546627  
     398A      4.562450   399A      4.574388   400A      4.594458  
     401A      4.617320   402A      4.634514   403A      4.638628  
     404A      4.656495   405A      4.676630   406A      4.701564  
     407A      4.716750   408A      4.724746   409A      4.728967  
     410A      4.738953   411A      4.764237   412A      4.786161  
     413A      4.807271   414A      4.817322   415A      4.832296  
     416A      4.841661   417A      4.852171   418A      4.872442  
     419A      4.885819   420A      4.910704   421A      4.918383  
     422A      4.948177   423A      4.951736   424A      4.976615  
     425A      5.006834   426A      5.014827   427A      5.026904  
     428A      5.036693   429A      5.048758   430A      5.090635  
     431A      5.094082   432A      5.098712   433A      5.112328  
     434A      5.134429   435A      5.166035   436A      5.189119  
     437A      5.201175   438A      5.212168   439A      5.228597  
     440A      5.235624   441A      5.270157   442A      5.304384  
     443A      5.320600   444A      5.327812   445A      5.354190  
     446A      5.377140   447A      5.393275   448A      5.414773  
     449A      5.420133   450A      5.442601   451A      5.452718  
     452A      5.457777   453A      5.467341   454A      5.525888  
     455A      5.536353   456A      5.547954   457A      5.567306  
     458A      5.582992   459A      5.591833   460A      5.610721  
     461A      5.631517   462A      5.639328   463A      5.666138  
     464A      5.688593   465A      5.694085   466A      5.715729  
     467A      5.719204   468A      5.760635   469A      5.782665  
     470A      5.786141   471A      5.813486   472A      5.819468  
     473A      5.860483   474A      5.879425   475A      5.920407  
     476A      5.937868   477A      6.004834   478A      6.034815  
     479A      6.054300   480A      6.074823   481A      6.141654  
     482A      6.152510   483A      6.175846   484A      6.201949  
     485A      6.219496   486A      6.234392   487A      6.254699  
     488A      6.297990   489A      6.327162   490A      6.374955  
     491A      6.407308   492A      6.415203   493A      6.487641  
     494A      6.514734   495A      6.553705   496A      6.758602  
     497A      6.788603   498A      6.807292   499A      6.847571  
     500A      6.879762   501A      6.914966   502A      7.006270  
     503A      7.030321   504A      7.096707   505A      7.136283  
     506A      7.141282   507A      7.241960   508A      7.273699  
     509A      7.373374   510A      7.410179   511A      7.436384  
     512A      7.512368   513A      7.568776   514A      7.710612  
     515A      7.751331   516A      7.819519   517A      7.853925  
     518A      7.895982   519A      7.925123   520A      7.952231  
     521A      7.968982   522A      8.017424   523A      8.117497  
     524A      8.180946   525A      8.230787   526A      8.248060  
     527A      8.348352   528A      8.382622   529A      8.400676  
     530A      8.462097   531A      8.667614   532A      8.708007  
     533A      8.823735   534A      8.976624   535A      9.172598  
     536A     10.066609   537A     10.177420   538A     10.389382  
     539A     10.511112   540A     10.754844   541A     10.798976  
     542A     11.199647   543A     12.156677   544A     12.749428  
     545A     13.370388   546A     14.535692   547A     17.202308  
     548A     18.061462   549A     18.799055   550A     53.104436  
     551A     54.764931   552A     68.756069  

    Final Occupation by Irrep:
              A 
    DOCC [    13 ]
    NA   [    13 ]
    NB   [    13 ]

  @DF-RHF Final Energy:  -154.14494559358906

   => Energetics <=

    Nuclear Repulsion Energy =             81.8976053974066787
    One-Electron Energy =                -371.7279709008793702
    Two-Electron Energy =                 135.6854199098836489
    Total Energy =                       -154.1449455935890569

Computation Completed


Properties will be evaluated at   0.000000,   0.000000,   0.000000 [a0]

Properties computed using the SCF density matrix


 Multipole Moments:

 ------------------------------------------------------------------------------------
     Multipole            Electronic (a.u.)      Nuclear  (a.u.)        Total (a.u.)
 ------------------------------------------------------------------------------------

 L = 1.  Multiply by 2.5417464519 to convert [e a0] to [Debye]
 Dipole X            :        -85.9453892           86.6248887            0.6794995
 Dipole Y            :          7.3055578           -7.0771604            0.2283974
 Dipole Z            :          1.0466283           -0.8673919            0.1792365
 Magnitude           :                                                    0.7389253

 ------------------------------------------------------------------------------------

*** tstop() called on ivy at Thu Feb 27 15:00:32 2025
Module time:
	user time   =      16.15 seconds =       0.27 minutes
	system time =       1.08 seconds =       0.02 minutes
	total time  =          9 seconds =       0.15 minutes
Total time:
	user time   =      37.88 seconds =       0.63 minutes
	system time =       2.88 seconds =       0.05 minutes
	total time  =         23 seconds =       0.38 minutes

*** tstart() called on ivy
*** at Thu Feb 27 15:00:32 2025


  //>>>>>>>>>>>>>>>>>>>>>>>>>>>>>>>>>>>//
  //               DFMP2               //
  //<<<<<<<<<<<<<<<<<<<<<<<<<<<<<<<<<<<//

   => Loading Basis Set <=

    Name: (AUG-CC-PVTZ AUX)
    Role: RIFIT
    Keyword: DF_BASIS_MP2
    atoms 1-2, 10-11 entry C          line   148 file /home/kchung25/miniconda3/envs/p4env/share/psi4/basis/aug-cc-pvtz-ri.gbs 
    atoms 3, 12      entry O          line   264 file /home/kchung25/miniconda3/envs/p4env/share/psi4/basis/aug-cc-pvtz-ri.gbs 
    atoms 4-9, 13-18 entry H          line    30 file /home/kchung25/miniconda3/envs/p4env/share/psi4/basis/aug-cc-pvtz-ri.gbs 

	 --------------------------------------------------------
	                          DF-MP2                         
	      2nd-Order Density-Fitted Moller-Plesset Theory     
	              RMP2 Wavefunction,   2 Threads             
	                                                         
	        Rob Parrish, Justin Turney, Andy Simmonett,      
	           Ed Hohenstein, and C. David Sherrill          
	 --------------------------------------------------------

   => Auxiliary Basis Set <=

  Basis Set: (AUG-CC-PVTZ AUX)
    Blend: AUG-CC-PVTZ-RI
    Number of shells: 336
    Number of basis functions: 1188
    Number of Cartesian functions: 1476
    Spherical Harmonics?: true
    Max angular momentum: 4

	 --------------------------------------------------------
	                 NBF =   552, NAUX =  1188
	 --------------------------------------------------------
	   CLASS    FOCC     OCC    AOCC    AVIR     VIR    FVIR
	   PAIRS       0      13      13     539     539       0
	 --------------------------------------------------------

	-----------------------------------------------------------
	 ==================> DF-MP2 Energies <==================== 
	-----------------------------------------------------------
	 Reference Energy          =    -154.1449455935890569 [Eh]
	 Singles Energy            =      -0.0000000000000000 [Eh]
	 Same-Spin Energy          =      -0.1483592185539264 [Eh]
	 Opposite-Spin Energy      =      -0.5197056474095259 [Eh]
	 Correlation Energy        =      -0.6680648659634523 [Eh]
	 Total Energy              =    -154.8130104595525154 [Eh]
	-----------------------------------------------------------
	 ================> DF-SCS-MP2 Energies <================== 
	-----------------------------------------------------------
	 SCS Same-Spin Scale       =       0.3333333333333333 [-]
	 SCS Opposite-Spin Scale   =       1.2000000000000000 [-]
	 SCS Same-Spin Energy      =      -0.0494530728513088 [Eh]
	 SCS Opposite-Spin Energy  =      -0.6236467768914310 [Eh]
	 SCS Correlation Energy    =      -0.6730998497427398 [Eh]
	 SCS Total Energy          =    -154.8180454433317834 [Eh]
	-----------------------------------------------------------


*** tstop() called on ivy at Thu Feb 27 15:00:36 2025
Module time:
	user time   =       5.23 seconds =       0.09 minutes
	system time =       0.77 seconds =       0.01 minutes
	total time  =          4 seconds =       0.07 minutes
Total time:
	user time   =      43.11 seconds =       0.72 minutes
	system time =       3.65 seconds =       0.06 minutes
	total time  =         27 seconds =       0.45 minutes

    Psi4 stopped on: Thursday, 27 February 2025 03:00PM
    Psi4 wall time for execution: 0:00:13.13


    -----------------------------------------------------------------------
          Psi4: An Open-Source Ab Initio Electronic Structure Package
                               Psi4 1.9.1 release

                         Git: Rev {} zzzzzzz 


    D. G. A. Smith, L. A. Burns, A. C. Simmonett, R. M. Parrish,
    M. C. Schieber, R. Galvelis, P. Kraus, H. Kruse, R. Di Remigio,
    A. Alenaizan, A. M. James, S. Lehtola, J. P. Misiewicz, M. Scheurer,
    R. A. Shaw, J. B. Schriber, Y. Xie, Z. L. Glick, D. A. Sirianni,
    J. S. O'Brien, J. M. Waldrop, A. Kumar, E. G. Hohenstein,
    B. P. Pritchard, B. R. Brooks, H. F. Schaefer III, A. Yu. Sokolov,
    K. Patkowski, A. E. DePrince III, U. Bozkaya, R. A. King,
    F. A. Evangelista, J. M. Turney, T. D. Crawford, C. D. Sherrill,
    J. Chem. Phys. 152(18) 184108 (2020). https://doi.org/10.1063/5.0006002

                            Additional Code Authors
    E. T. Seidl, C. L. Janssen, E. F. Valeev, M. L. Leininger,
    J. F. Gonthier, R. M. Richard, H. R. McAlexander, M. Saitow, X. Wang,
    P. Verma, M. H. Lechner, A. Jiang, S. Behnle, A. G. Heide,
    M. F. Herbst, and D. L. Poole

             Previous Authors, Complete List of Code Contributors,
                       and Citations for Specific Modules
    https://github.com/psi4/psi4/blob/master/codemeta.json
    https://github.com/psi4/psi4/graphs/contributors
    http://psicode.org/psi4manual/master/introduction.html#citing-psifour

    -----------------------------------------------------------------------


    Psi4 started on: Thursday, 27 February 2025 03:00PM

    Process ID: 3729
    Host:       ivy
    PSIDATADIR: /home/kchung25/miniconda3/envs/p4env/share/psi4
    Memory:     9.3 GiB
    Threads:    2
    
  ==> Input QCSchema <==

--------------------------------------------------------------------------
{'driver': 'energy',
 'extras': {'psiapi': True, 'wfn_qcvars_only': True},
 'id': None,
 'keywords': {'SCF_TYPE': 'DF', 'function_kwargs': {}},
 'model': {'basis': 'aug-cc-pvtz', 'method': 'mp2'},
 'molecule': {'atom_labels': ['', '', '', '', '', '', '', '', '', '', '', '', '', '', '', '', '', ''],
              'atomic_numbers': [6, 6, 8, 1, 1, 1, 1, 1, 1, 6, 6, 8, 1, 1, 1, 1, 1, 1],
              'extras': {},
              'fix_com': True,
              'fix_orientation': True,
              'fix_symmetry': 'c1',
              'fragment_charges': [0.0, 0.0],
              'fragment_multiplicities': [1, 1],
              'fragments': [[0, 1, 2, 3, 4, 5, 6, 7, 8], [9, 10, 11, 12, 13, 14, 15, 16, 17]],
              'geometry': [4.352288710777939, 1.4533826939112393, 1.1312335223999415, 3.3467748880524555,
                           -1.1545962064889765, 0.5798019903607199, 2.0729634192128463, -1.2706990899109802,
                           -1.80656305812868, 3.25097144267012, -0.7695947440449514, -3.097189310032613,
                           5.252323690358742, 1.489737245112797, 2.979211818294155, 2.819769955910902,
                           2.819153905194003, 1.1135513550440326, 5.7571394583351685, 2.0049918602062538,
                           -0.2677269488242378, 1.9209236140630117, -1.6828332400643284, 1.957045728951138,
                           4.845671635695346, -2.565741631770108, 0.6340068945433524, -3.51443705908145,
                           -2.053567270261147, 1.0999094221443524, -3.769822206580323, 0.313424305990059,
                           -0.4790663597909394, -1.4804945946331824, 1.6966112332450418, -0.6079967041525508,
                           -0.21719000305111913, 0.5898345463607755, -1.333496578786069, -5.310374187206681,
                           -3.0504620521284176, 1.215963172687094, -2.9065726357576818, -1.575612069431977,
                           3.0035458216116755, -2.129927323538647, -3.325377519133897, 0.2664910679381884,
                           -5.153169760555969, 1.583186091742812, 0.3539060190496166, -4.430967458011375,
                           -0.1710712369593208, -2.373821046468611],
              'mass_numbers': [12, 12, 16, 1, 1, 1, 1, 1, 1, 12, 12, 16, 1, 1, 1, 1, 1, 1],
              'masses': [12.0, 12.0, 15.99491461957, 1.00782503223, 1.00782503223, 1.00782503223, 1.00782503223,
                         1.00782503223, 1.00782503223, 12.0, 12.0, 15.99491461957, 1.00782503223, 1.00782503223,
                         1.00782503223, 1.00782503223, 1.00782503223, 1.00782503223],
              'molecular_charge': 0.0,
              'molecular_multiplicity': 1,
              'name': 'dimer',
              'provenance': {'creator': 'QCElemental',
                             'routine': 'qcelemental.molparse.from_string',
                             'version': '0.27.1'},
              'real': [True, True, True, True, True, True, True, True, True, True, True, True, True, True, True, True,
                       True, True],
              'schema_name': 'qcschema_molecule',
              'schema_version': 2,
              'symbols': ['C', 'C', 'O', 'H', 'H', 'H', 'H', 'H', 'H', 'C', 'C', 'O', 'H', 'H', 'H', 'H', 'H', 'H'],
              'validated': True},
 'protocols': {'stdout': True},
 'provenance': {'creator': 'QCElemental', 'routine': 'qcelemental.models.results', 'version': '0.27.1'},
 'schema_name': 'qcschema_input',
 'schema_version': 1}
--------------------------------------------------------------------------

Scratch directory: /tmp/
   => Libint2 <=

    Primary   basis highest AM E, G, H:  6, 6, 3
    Auxiliary basis highest AM E, G, H:  7, 7, 4
    Onebody   basis highest AM E, G, H:  -, -, -
    Solid Harmonics ordering:            Gaussian

*** tstart() called on ivy
*** at Thu Feb 27 15:00:36 2025

   => Loading Basis Set <=

    Name: AUG-CC-PVTZ
    Role: ORBITAL
    Keyword: BASIS
    atoms 1-2, 10-11 entry C          line   239 file /home/kchung25/miniconda3/envs/p4env/share/psi4/basis/aug-cc-pvtz.gbs 
    atoms 3, 12      entry O          line   331 file /home/kchung25/miniconda3/envs/p4env/share/psi4/basis/aug-cc-pvtz.gbs 
    atoms 4-9, 13-18 entry H          line    40 file /home/kchung25/miniconda3/envs/p4env/share/psi4/basis/aug-cc-pvtz.gbs 


         ---------------------------------------------------------
                                   SCF
               by Justin Turney, Rob Parrish, Andy Simmonett
                          and Daniel G. A. Smith
                              RHF Reference
                        2 Threads,   9536 MiB Core
         ---------------------------------------------------------

  ==> Geometry <==

    Molecular point group: c1
    Full point group: C1

    Geometry (in Bohr), charge = 0, multiplicity = 1:

       Center              X                  Y                   Z               Mass       
    ------------   -----------------  -----------------  -----------------  -----------------
         C            4.352288710778     1.453382693911     1.131233522400    12.000000000000
         C            3.346774888052    -1.154596206489     0.579801990361    12.000000000000
         O            2.072963419213    -1.270699089911    -1.806563058129    15.994914619570
         H            3.250971442670    -0.769594744045    -3.097189310033     1.007825032230
         H            5.252323690359     1.489737245113     2.979211818294     1.007825032230
         H            2.819769955911     2.819153905194     1.113551355044     1.007825032230
         H            5.757139458335     2.004991860206    -0.267726948824     1.007825032230
         H            1.920923614063    -1.682833240064     1.957045728951     1.007825032230
         H            4.845671635695    -2.565741631770     0.634006894543     1.007825032230
         C           -3.514437059081    -2.053567270261     1.099909422144    12.000000000000
         C           -3.769822206580     0.313424305990    -0.479066359791    12.000000000000
         O           -1.480494594633     1.696611233245    -0.607996704153    15.994914619570
         H           -0.217190003051     0.589834546361    -1.333496578786     1.007825032230
         H           -5.310374187207    -3.050462052128     1.215963172687     1.007825032230
         H           -2.906572635758    -1.575612069432     3.003545821612     1.007825032230
         H           -2.129927323539    -3.325377519134     0.266491067938     1.007825032230
         H           -5.153169760556     1.583186091743     0.353906019050     1.007825032230
         H           -4.430967458011    -0.171071236959    -2.373821046469     1.007825032230

  Running in c1 symmetry.

  Rotational constants: A =      0.17253  B =      0.05375  C =      0.05036 [cm^-1]
  Rotational constants: A =   5172.30899  B =   1611.49780  C =   1509.62540 [MHz]
  Nuclear repulsion =  267.159478954827932

  Charge       = 0
  Multiplicity = 1
  Electrons    = 52
  Nalpha       = 26
  Nbeta        = 26

  ==> Algorithm <==

  SCF Algorithm Type is DF.
  DIIS enabled.
  MOM disabled.
  Fractional occupation disabled.
  Guess Type is SAD.
  Energy threshold   = 1.00e-08
  Density threshold  = 1.00e-08
  Integral threshold = 1.00e-12

  ==> Primary Basis <==

  Basis Set: AUG-CC-PVTZ
    Blend: AUG-CC-PVTZ
    Number of shells: 192
    Number of basis functions: 552
    Number of Cartesian functions: 630
    Spherical Harmonics?: true
    Max angular momentum: 3

   => Loading Basis Set <=

    Name: (AUG-CC-PVTZ AUX)
    Role: JKFIT
    Keyword: DF_BASIS_SCF
    atoms 1-2, 10-11 entry C          line   162 file /home/kchung25/miniconda3/envs/p4env/share/psi4/basis/aug-cc-pvtz-jkfit.gbs 
    atoms 3, 12      entry O          line   286 file /home/kchung25/miniconda3/envs/p4env/share/psi4/basis/aug-cc-pvtz-jkfit.gbs 
    atoms 4-9, 13-18 entry H          line    70 file /home/kchung25/miniconda3/envs/p4env/share/psi4/basis/aug-cc-pvtz-jkfit.gbs 

  ==> Integral Setup <==

  DFHelper Memory: AOs need 2.640 GiB; user supplied 6.985 GiB. 
  Using in-core AOs.

  ==> MemDFJK: Density-Fitted J/K Matrices <==

    J tasked:                   Yes
    K tasked:                   Yes
    wK tasked:                   No
    OpenMP threads:               2
    Memory [MiB]:              7152
    Algorithm:                 Core
    Schwarz Cutoff:           1E-12
    Mask sparsity (%):       3.9573
    Fitting Condition:        1E-10

   => Auxiliary Basis Set <=

  Basis Set: (AUG-CC-PVTZ AUX)
    Blend: AUG-CC-PVTZ-JKFIT
    Number of shells: 348
    Number of basis functions: 1176
    Number of Cartesian functions: 1446
    Spherical Harmonics?: true
    Max angular momentum: 4

  Minimum eigenvalue in the overlap matrix is 7.6265419109E-06.
  Reciprocal condition number of the overlap matrix is 3.8980874977E-07.
    Using symmetric orthogonalization.

  ==> Pre-Iterations <==

  SCF Guess: Superposition of Atomic Densities via on-the-fly atomic UHF (no occupation information).

   -------------------------
    Irrep   Nso     Nmo    
   -------------------------
     A        552     552 
   -------------------------
    Total     552     552
   -------------------------

  ==> Iterations <==

                           Total Energy        Delta E     RMS |[F,P]|

   @DF-RHF iter SAD:  -307.25563236033406   -3.07256e+02   0.00000e+00 
   @DF-RHF iter   1:  -308.01555905599400   -7.59927e-01   1.28511e-03 DIIS/ADIIS
   @DF-RHF iter   2:  -308.23389625875825   -2.18337e-01   6.40466e-04 DIIS/ADIIS
   @DF-RHF iter   3:  -308.28246515990685   -4.85689e-02   1.16625e-04 DIIS/ADIIS
   @DF-RHF iter   4:  -308.28554404062550   -3.07888e-03   4.11929e-05 DIIS
   @DF-RHF iter   5:  -308.28584816993407   -3.04129e-04   9.05631e-06 DIIS
   @DF-RHF iter   6:  -308.28586926603032   -2.10961e-05   2.11565e-06 DIIS
   @DF-RHF iter   7:  -308.28587074816801   -1.48214e-06   6.75642e-07 DIIS
   @DF-RHF iter   8:  -308.28587086167943   -1.13511e-07   2.50139e-07 DIIS
   @DF-RHF iter   9:  -308.28587087831005   -1.66306e-08   7.45696e-08 DIIS
   @DF-RHF iter  10:  -308.28587087976683   -1.45678e-09   2.16554e-08 DIIS
   @DF-RHF iter  11:  -308.28587087990655   -1.39721e-10   4.61637e-09 DIIS
  Energy and wave function converged.


  ==> Post-Iterations <==

    Orbital Energies [Eh]
    ---------------------

    Doubly Occupied:                                                      

       1A    -20.582878     2A    -20.509936     3A    -11.285316  
       4A    -11.250189     5A    -11.218373     6A    -11.200029  
       7A     -1.391830     8A     -1.322360     9A     -1.025977  
      10A     -0.995913    11A     -0.861933    12A     -0.830635  
      13A     -0.721992    14A     -0.663530    15A     -0.640578  
      16A     -0.628614    17A     -0.599272    18A     -0.588916  
      19A     -0.558362    20A     -0.535957    21A     -0.522400  
      22A     -0.504185    23A     -0.498068    24A     -0.472440  
      25A     -0.445899    26A     -0.413084  

    Virtual:                                                              

      27A      0.025575    28A      0.035771    29A      0.037905  
      30A      0.039667    31A      0.052053    32A      0.054098  
      33A      0.054248    34A      0.064892    35A      0.069371  
      36A      0.080077    37A      0.081769    38A      0.088805  
      39A      0.112342    40A      0.115660    41A      0.119699  
      42A      0.124064    43A      0.125973    44A      0.133726  
      45A      0.139417    46A      0.142698    47A      0.150423  
      48A      0.155965    49A      0.159568    50A      0.163939  
      51A      0.168974    52A      0.175842    53A      0.185050  
      54A      0.189564    55A      0.195630    56A      0.218407  
      57A      0.219631    58A      0.230894    59A      0.236882  
      60A      0.244148    61A      0.250403    62A      0.267384  
      63A      0.273586    64A      0.277749    65A      0.280714  
      66A      0.298179    67A      0.302590    68A      0.305636  
      69A      0.311295    70A      0.315119    71A      0.322400  
      72A      0.330450    73A      0.334101    74A      0.337159  
      75A      0.346161    76A      0.350745    77A      0.353415  
      78A      0.355486    79A      0.366993    80A      0.369284  
      81A      0.371747    82A      0.380704    83A      0.384442  
      84A      0.397788    85A      0.398458    86A      0.404745  
      87A      0.406113    88A      0.412747    89A      0.418209  
      90A      0.427351    91A      0.428909    92A      0.431272  
      93A      0.438078    94A      0.441687    95A      0.444752  
      96A      0.457348    97A      0.461002    98A      0.463338  
      99A      0.472632   100A      0.475618   101A      0.481222  
     102A      0.490304   103A      0.493246   104A      0.497563  
     105A      0.501386   106A      0.506473   107A      0.511705  
     108A      0.514173   109A      0.527359   110A      0.530852  
     111A      0.534151   112A      0.542812   113A      0.548600  
     114A      0.552897   115A      0.558278   116A      0.564894  
     117A      0.570069   118A      0.580543   119A      0.581974  
     120A      0.593180   121A      0.599625   122A      0.605252  
     123A      0.608544   124A      0.617652   125A      0.630498  
     126A      0.636906   127A      0.647224   128A      0.653661  
     129A      0.659773   130A      0.667895   131A      0.673353  
     132A      0.696418   133A      0.713905   134A      0.721475  
     135A      0.735995   136A      0.752429   137A      0.755051  
     138A      0.777215   139A      0.789808   140A      0.792860  
     141A      0.803922   142A      0.810651   143A      0.818303  
     144A      0.829016   145A      0.838079   146A      0.841720  
     147A      0.849707   148A      0.857283   149A      0.863689  
     150A      0.869001   151A      0.881058   152A      0.890152  
     153A      0.898307   154A      0.903209   155A      0.905077  
     156A      0.912098   157A      0.915238   158A      0.922961  
     159A      0.931780   160A      0.939843   161A      0.951823  
     162A      0.954219   163A      0.965179   164A      0.969355  
     165A      0.975886   166A      0.982691   167A      0.992933  
     168A      0.999947   169A      1.003242   170A      1.006103  
     171A      1.015963   172A      1.020312   173A      1.031470  
     174A      1.041890   175A      1.048240   176A      1.051904  
     177A      1.062128   178A      1.069630   179A      1.075276  
     180A      1.093041   181A      1.104154   182A      1.109452  
     183A      1.113769   184A      1.125101   185A      1.131720  
     186A      1.135636   187A      1.139862   188A      1.141448  
     189A      1.144759   190A      1.154550   191A      1.159869  
     192A      1.169756   193A      1.176334   194A      1.178361  
     195A      1.186777   196A      1.196970   197A      1.210168  
     198A      1.218139   199A      1.227620   200A      1.231293  
     201A      1.242262   202A      1.245745   203A      1.265261  
     204A      1.271607   205A      1.285614   206A      1.294620  
     207A      1.295369   208A      1.301183   209A      1.316172  
     210A      1.317093   211A      1.327795   212A      1.332610  
     213A      1.356084   214A      1.363739   215A      1.367573  
     216A      1.377324   217A      1.387169   218A      1.392123  
     219A      1.398718   220A      1.417372   221A      1.424273  
     222A      1.437967   223A      1.447510   224A      1.459957  
     225A      1.467311   226A      1.473669   227A      1.478844  
     228A      1.486349   229A      1.506078   230A      1.525661  
     231A      1.532886   232A      1.535127   233A      1.553363  
     234A      1.568474   235A      1.576396   236A      1.596629  
     237A      1.598533   238A      1.607469   239A      1.615124  
     240A      1.618730   241A      1.629283   242A      1.644816  
     243A      1.661263   244A      1.662344   245A      1.673773  
     246A      1.676466   247A      1.687083   248A      1.688785  
     249A      1.702158   250A      1.710307   251A      1.713607  
     252A      1.720010   253A      1.726230   254A      1.744294  
     255A      1.750539   256A      1.769112   257A      1.774243  
     258A      1.775949   259A      1.777618   260A      1.802653  
     261A      1.805117   262A      1.817990   263A      1.823183  
     264A      1.834511   265A      1.850082   266A      1.854414  
     267A      1.861772   268A      1.883120   269A      1.891408  
     270A      1.899823   271A      1.911315   272A      1.914297  
     273A      1.933660   274A      1.946420   275A      1.956306  
     276A      1.979107   277A      1.984561   278A      1.987397  
     279A      1.998567   280A      2.017165   281A      2.020143  
     282A      2.036476   283A      2.050843   284A      2.060421  
     285A      2.065163   286A      2.079909   287A      2.096288  
     288A      2.110761   289A      2.118133   290A      2.129125  
     291A      2.148451   292A      2.160432   293A      2.165398  
     294A      2.179128   295A      2.206632   296A      2.216463  
     297A      2.233319   298A      2.237182   299A      2.258191  
     300A      2.263783   301A      2.278382   302A      2.289456  
     303A      2.302880   304A      2.320529   305A      2.336168  
     306A      2.339077   307A      2.350149   308A      2.357931  
     309A      2.370250   310A      2.383668   311A      2.408780  
     312A      2.452133   313A      2.452646   314A      2.473882  
     315A      2.485897   316A      2.514035   317A      2.547370  
     318A      2.568843   319A      2.621897   320A      2.648089  
     321A      2.680540   322A      2.694245   323A      2.739336  
     324A      2.742945   325A      2.756642   326A      2.793955  
     327A      2.827791   328A      2.833078   329A      2.853252  
     330A      2.882043   331A      2.907347   332A      2.924810  
     333A      2.951015   334A      2.984566   335A      3.000693  
     336A      3.011819   337A      3.042178   338A      3.063025  
     339A      3.097086   340A      3.107429   341A      3.141594  
     342A      3.188657   343A      3.195454   344A      3.229764  
     345A      3.245492   346A      3.274174   347A      3.315459  
     348A      3.343607   349A      3.366857   350A      3.415012  
     351A      3.440699   352A      3.448211   353A      3.469254  
     354A      3.477717   355A      3.508344   356A      3.526632  
     357A      3.539849   358A      3.556957   359A      3.586711  
     360A      3.612232   361A      3.641986   362A      3.653921  
     363A      3.666074   364A      3.670267   365A      3.678880  
     366A      3.691313   367A      3.713353   368A      3.717963  
     369A      3.726745   370A      3.730943   371A      3.753359  
     372A      3.764437   373A      3.790587   374A      3.791900  
     375A      3.814243   376A      3.816687   377A      3.833585  
     378A      3.847443   379A      3.860013   380A      3.874617  
     381A      3.898822   382A      3.909632   383A      3.936673  
     384A      3.954232   385A      3.973850   386A      3.994322  
     387A      3.995755   388A      4.002958   389A      4.014400  
     390A      4.026686   391A      4.033898   392A      4.048678  
     393A      4.072886   394A      4.088234   395A      4.095450  
     396A      4.098675   397A      4.128605   398A      4.138643  
     399A      4.148275   400A      4.150017   401A      4.178426  
     402A      4.196562   403A      4.208461   404A      4.222553  
     405A      4.237836   406A      4.240351   407A      4.252234  
     408A      4.269439   409A      4.281934   410A      4.319993  
     411A      4.321732   412A      4.335518   413A      4.355530  
     414A      4.386241   415A      4.398174   416A      4.410403  
     417A      4.440432   418A      4.448815   419A      4.468073  
     420A      4.498755   421A      4.511612   422A      4.525186  
     423A      4.559117   424A      4.564537   425A      4.591564  
     426A      4.606520   427A      4.620694   428A      4.624532  
     429A      4.639708   430A      4.666285   431A      4.684315  
     432A      4.701638   433A      4.723800   434A      4.757868  
     435A      4.760950   436A      4.770078   437A      4.797793  
     438A      4.812340   439A      4.814977   440A      4.844221  
     441A      4.860491   442A      4.869138   443A      4.891148  
     444A      4.906889   445A      4.911137   446A      4.923497  
     447A      4.925308   448A      4.964055   449A      4.971211  
     450A      4.991383   451A      5.002870   452A      5.023380  
     453A      5.038801   454A      5.052052   455A      5.055129  
     456A      5.076167   457A      5.104584   458A      5.117325  
     459A      5.131776   460A      5.148774   461A      5.158885  
     462A      5.198348   463A      5.211467   464A      5.228744  
     465A      5.237825   466A      5.241760   467A      5.265885  
     468A      5.293012   469A      5.311727   470A      5.326980  
     471A      5.347297   472A      5.377909   473A      5.406228  
     474A      5.418117   475A      5.447472   476A      5.458964  
     477A      5.480746   478A      5.492919   479A      5.508875  
     480A      5.531679   481A      5.555145   482A      5.592633  
     483A      5.601548   484A      5.619914   485A      5.641433  
     486A      5.643359   487A      5.668242   488A      5.687034  
     489A      5.707897   490A      5.740703   491A      5.769707  
     492A      5.787873   493A      5.797182   494A      5.836494  
     495A      5.855650   496A      5.888214   497A      5.920204  
     498A      5.926203   499A      6.044058   500A      6.060411  
     501A      6.120183   502A      6.133070   503A      6.164761  
     504A      6.209975   505A      6.213588   506A      6.229430  
     507A      6.265304   508A      6.296336   509A      6.307717  
     510A      6.343413   511A      6.357548   512A      6.397054  
     513A      6.459730   514A      6.484303   515A      6.720099  
     516A      6.742058   517A      6.770779   518A      6.797597  
     519A      6.828176   520A      6.888114   521A      6.904747  
     522A      6.913274   523A      7.046065   524A      7.075078  
     525A      7.113334   526A      7.155222   527A      7.230712  
     528A      7.271223   529A      7.356636   530A      7.446454  
     531A      7.490807   532A      7.516724   533A      7.532043  
     534A      7.612371   535A      7.681506   536A      7.725847  
     537A      7.770055   538A      7.835143   539A      7.927239  
     540A      7.987724   541A      8.178652   542A      8.249914  
     543A      8.292197   544A      8.466674   545A      8.684889  
     546A      8.991743   547A     17.044816   548A     17.560584  
     549A     17.940717   550A     18.039105   551A     18.788374  
     552A     18.848370  

    Final Occupation by Irrep:
              A 
    DOCC [    26 ]
    NA   [    26 ]
    NB   [    26 ]

  @DF-RHF Final Energy:  -308.28587087990655

   => Energetics <=

    Nuclear Repulsion Energy =            267.1594789548279323
    One-Electron Energy =                -950.3533613346173752
    Two-Electron Energy =                 374.9080114998828890
    Total Energy =                       -308.2858708799065539

Computation Completed


Properties will be evaluated at   0.000000,   0.000000,   0.000000 [a0]

Properties computed using the SCF density matrix


 Multipole Moments:

 ------------------------------------------------------------------------------------
     Multipole            Electronic (a.u.)      Nuclear  (a.u.)        Total (a.u.)
 ------------------------------------------------------------------------------------

 L = 1.  Multiply by 2.5417464519 to convert [e a0] to [Debye]
 Dipole X            :        -10.0213808           10.9271750            0.9057943
 Dipole Y            :          9.3530114           -9.8946306           -0.5416192
 Dipole Z            :          0.8215939           -0.8737187           -0.0521247
 Magnitude           :                                                    1.0566606

 ------------------------------------------------------------------------------------

*** tstop() called on ivy at Thu Feb 27 15:00:48 2025
Module time:
	user time   =      19.59 seconds =       0.33 minutes
	system time =       1.27 seconds =       0.02 minutes
	total time  =         12 seconds =       0.20 minutes
Total time:
	user time   =      62.72 seconds =       1.05 minutes
	system time =       4.92 seconds =       0.08 minutes
	total time  =         39 seconds =       0.65 minutes

*** tstart() called on ivy
*** at Thu Feb 27 15:00:48 2025


  //>>>>>>>>>>>>>>>>>>>>>>>>>>>>>>>>>>>//
  //               DFMP2               //
  //<<<<<<<<<<<<<<<<<<<<<<<<<<<<<<<<<<<//

   => Loading Basis Set <=

    Name: (AUG-CC-PVTZ AUX)
    Role: RIFIT
    Keyword: DF_BASIS_MP2
    atoms 1-2, 10-11 entry C          line   148 file /home/kchung25/miniconda3/envs/p4env/share/psi4/basis/aug-cc-pvtz-ri.gbs 
    atoms 3, 12      entry O          line   264 file /home/kchung25/miniconda3/envs/p4env/share/psi4/basis/aug-cc-pvtz-ri.gbs 
    atoms 4-9, 13-18 entry H          line    30 file /home/kchung25/miniconda3/envs/p4env/share/psi4/basis/aug-cc-pvtz-ri.gbs 

	 --------------------------------------------------------
	                          DF-MP2                         
	      2nd-Order Density-Fitted Moller-Plesset Theory     
	              RMP2 Wavefunction,   2 Threads             
	                                                         
	        Rob Parrish, Justin Turney, Andy Simmonett,      
	           Ed Hohenstein, and C. David Sherrill          
	 --------------------------------------------------------

   => Auxiliary Basis Set <=

  Basis Set: (AUG-CC-PVTZ AUX)
    Blend: AUG-CC-PVTZ-RI
    Number of shells: 336
    Number of basis functions: 1188
    Number of Cartesian functions: 1476
    Spherical Harmonics?: true
    Max angular momentum: 4

	 --------------------------------------------------------
	                 NBF =   552, NAUX =  1188
	 --------------------------------------------------------
	   CLASS    FOCC     OCC    AOCC    AVIR     VIR    FVIR
	   PAIRS       0      26      26     526     526       0
	 --------------------------------------------------------

	-----------------------------------------------------------
	 ==================> DF-MP2 Energies <==================== 
	-----------------------------------------------------------
	 Reference Energy          =    -308.2858708799065539 [Eh]
	 Singles Energy            =      -0.0000000000000000 [Eh]
	 Same-Spin Energy          =      -0.3024745062161394 [Eh]
	 Opposite-Spin Energy      =      -1.0432806037404569 [Eh]
	 Correlation Energy        =      -1.3457551099565963 [Eh]
	 Total Energy              =    -309.6316259898631529 [Eh]
	-----------------------------------------------------------
	 ================> DF-SCS-MP2 Energies <================== 
	-----------------------------------------------------------
	 SCS Same-Spin Scale       =       0.3333333333333333 [-]
	 SCS Opposite-Spin Scale   =       1.2000000000000000 [-]
	 SCS Same-Spin Energy      =      -0.1008248354053798 [Eh]
	 SCS Opposite-Spin Energy  =      -1.2519367244885482 [Eh]
	 SCS Correlation Energy    =      -1.3527615598939280 [Eh]
	 SCS Total Energy          =    -309.6386324398004604 [Eh]
	-----------------------------------------------------------


*** tstop() called on ivy at Thu Feb 27 15:00:52 2025
Module time:
	user time   =       7.87 seconds =       0.13 minutes
	system time =       0.88 seconds =       0.01 minutes
	total time  =          4 seconds =       0.07 minutes
Total time:
	user time   =      70.59 seconds =       1.18 minutes
	system time =       5.80 seconds =       0.10 minutes
	total time  =         43 seconds =       0.72 minutes

    Psi4 stopped on: Thursday, 27 February 2025 03:00PM
    Psi4 wall time for execution: 0:00:16.52


  //>>>>>>>>>>>>>>>>>>>>>>>>>>>>>>>>>>>//
  //          ManyBody Results         //
  //<<<<<<<<<<<<<<<<<<<<<<<<<<<<<<<<<<<//


   ==> N-Body: Counterpoise Corrected (CP) energies <==

        n-Body     Total Energy            Interaction Energy                          N-body Contribution to Interaction Energy
                   [Eh]                    [Eh]                  [kcal/mol]            [Eh]                  [kcal/mol]
             1  N/A                         0.000000000000        0.000000000000        0.000000000000        0.000000000000
  FULL/RTN   2  N/A                        -0.005865648885       -3.680750245042       -0.005865648885       -3.680750245042


    Psi4 stopped on: Thursday, 27 February 2025 03:00PM
    Psi4 wall time for execution: 0:00:44.28

*** Psi4 exiting successfully. Buy a developer a beer!
