
    -----------------------------------------------------------------------
          Psi4: An Open-Source Ab Initio Electronic Structure Package
                               Psi4 1.9.1 release

                         Git: Rev {} zzzzzzz 


    D. G. A. Smith, L. A. Burns, A. C. Simmonett, R. M. Parrish,
    M. C. Schieber, R. Galvelis, P. Kraus, H. Kruse, R. Di Remigio,
    A. Alenaizan, A. M. James, S. Lehtola, J. P. Misiewicz, M. Scheurer,
    R. A. Shaw, J. B. Schriber, Y. Xie, Z. L. Glick, D. A. Sirianni,
    J. S. O'Brien, J. M. Waldrop, A. Kumar, E. G. Hohenstein,
    B. P. Pritchard, B. R. Brooks, H. F. Schaefer III, A. Yu. Sokolov,
    K. Patkowski, A. E. DePrince III, U. Bozkaya, R. A. King,
    F. A. Evangelista, J. M. Turney, T. D. Crawford, C. D. Sherrill,
    J. Chem. Phys. 152(18) 184108 (2020). https://doi.org/10.1063/5.0006002

                            Additional Code Authors
    E. T. Seidl, C. L. Janssen, E. F. Valeev, M. L. Leininger,
    J. F. Gonthier, R. M. Richard, H. R. McAlexander, M. Saitow, X. Wang,
    P. Verma, M. H. Lechner, A. Jiang, S. Behnle, A. G. Heide,
    M. F. Herbst, and D. L. Poole

             Previous Authors, Complete List of Code Contributors,
                       and Citations for Specific Modules
    https://github.com/psi4/psi4/blob/master/codemeta.json
    https://github.com/psi4/psi4/graphs/contributors
    http://psicode.org/psi4manual/master/introduction.html#citing-psifour

    -----------------------------------------------------------------------


    Psi4 started on: Thursday, 27 February 2025 05:43PM

    Process ID: 31989
    Host:       Moses-MBP.lan
    PSIDATADIR: /Users/moseschung/miniconda3/envs/psi4/share/psi4
    Memory:     500.0 MiB
    Threads:    10
    
  ==> Input File <==

--------------------------------------------------------------------------
MEMORY 10 GB

molecule dimer {
0 1
C   -1.293433   0.977734   0.582155
C   -1.697697  -0.119261  -0.369663
O   -3.004856  -0.591736  -0.138850
H   -3.604335   0.157887  -0.173882
H   -0.261743   1.295688   0.406944
H   -1.383760   0.637179   1.616441
H   -1.937873   1.853832   0.459971
H   -1.042307  -0.988013  -0.249493
H   -1.579452   0.220487  -1.409929
--
0 1
C    1.810897  -1.169369   0.598404
C    1.982063  -0.248703  -0.583258
O    2.118234   1.102081  -0.201091
H    2.852989   1.171537   0.413824
H    1.654232  -2.200924   0.275950
H    0.953609  -0.862743   1.202615
H    2.697885  -1.153732   1.238767
H    1.098806  -0.286698  -1.228218
H    2.833951  -0.569664  -1.199291

units ang
no_reorient
no_com
symmetry c1
}

set {
basis        aug-cc-pVTZ
scf_type     df
}

energy("mp2", bsse_type="cp")
--------------------------------------------------------------------------

  Memory set to   9.313 GiB by Python driver.

Scratch directory: /tmp/

  //>>>>>>>>>>>>>>>>>>>>>>>>>>>>>>>>>>>>>//
  // ManyBody Setup: N-Body Levels [1, 2]//
  //<<<<<<<<<<<<<<<<<<<<<<<<<<<<<<<<<<<<<//

        Number of 1-body computations:     2
        Number of 2-body computations:     1

    -----------------------------------------------------------------------
          Psi4: An Open-Source Ab Initio Electronic Structure Package
                               Psi4 1.9.1 release

                         Git: Rev {} zzzzzzz 


    D. G. A. Smith, L. A. Burns, A. C. Simmonett, R. M. Parrish,
    M. C. Schieber, R. Galvelis, P. Kraus, H. Kruse, R. Di Remigio,
    A. Alenaizan, A. M. James, S. Lehtola, J. P. Misiewicz, M. Scheurer,
    R. A. Shaw, J. B. Schriber, Y. Xie, Z. L. Glick, D. A. Sirianni,
    J. S. O'Brien, J. M. Waldrop, A. Kumar, E. G. Hohenstein,
    B. P. Pritchard, B. R. Brooks, H. F. Schaefer III, A. Yu. Sokolov,
    K. Patkowski, A. E. DePrince III, U. Bozkaya, R. A. King,
    F. A. Evangelista, J. M. Turney, T. D. Crawford, C. D. Sherrill,
    J. Chem. Phys. 152(18) 184108 (2020). https://doi.org/10.1063/5.0006002

                            Additional Code Authors
    E. T. Seidl, C. L. Janssen, E. F. Valeev, M. L. Leininger,
    J. F. Gonthier, R. M. Richard, H. R. McAlexander, M. Saitow, X. Wang,
    P. Verma, M. H. Lechner, A. Jiang, S. Behnle, A. G. Heide,
    M. F. Herbst, and D. L. Poole

             Previous Authors, Complete List of Code Contributors,
                       and Citations for Specific Modules
    https://github.com/psi4/psi4/blob/master/codemeta.json
    https://github.com/psi4/psi4/graphs/contributors
    http://psicode.org/psi4manual/master/introduction.html#citing-psifour

    -----------------------------------------------------------------------


    Psi4 started on: Thursday, 27 February 2025 05:43PM

    Process ID: 31989
    Host:       Moses-MBP.lan
    PSIDATADIR: /Users/moseschung/miniconda3/envs/psi4/share/psi4
    Memory:     9.3 GiB
    Threads:    10
    
  ==> Input QCSchema <==

--------------------------------------------------------------------------
{'driver': 'energy',
 'extras': {'psiapi': True, 'wfn_qcvars_only': True},
 'id': None,
 'keywords': {'SCF_TYPE': 'DF', 'function_kwargs': {}},
 'model': {'basis': 'aug-cc-pvtz', 'method': 'mp2'},
 'molecule': {'atom_labels': ['', '', '', '', '', '', '', '', '', '', '', '', '', '', '', '', '', ''],
              'atomic_numbers': [6, 6, 8, 1, 1, 1, 1, 1, 1, 6, 6, 8, 1, 1, 1, 1, 1, 1],
              'extras': {},
              'fix_com': True,
              'fix_orientation': True,
              'fix_symmetry': 'c1',
              'fragment_charges': [0.0, 0.0],
              'fragment_multiplicities': [1, 1],
              'fragments': [[0, 1, 2, 3, 4, 5, 6, 7, 8], [9, 10, 11, 12, 13, 14, 15, 16, 17]],
              'geometry': [-2.4442341316292953, 1.847649483548384, 1.1001135125659018, -3.2081823740113786,
                           -0.22537062744822606, -0.6985618287151172, -5.678354886438708, -1.1182189785739134,
                           -0.26238847251981945, -6.811206014402041, 0.2983631887701601, -0.3285893581468581,
                           -0.4946225852557083, 2.4484954640422023, 0.7690127083983104, -2.6149274233635245,
                           1.2040938028930936, 3.054630787961177, -3.6620492359193375, 3.503234762609736,
                           0.8692192156529627, -1.9696747686475726, -1.8670739783919652, -0.4714734402188499,
                           -2.984731708306618, 0.41666004422382014, -2.66437966634063, 3.4220993714132044,
                           -2.209787149600495, 1.1308196723784663, 3.745556233403319, -0.46998055657973825,
                           -1.102197880482282, 4.002882129633037, 2.082631258070689, -0.3800069162944401,
                           5.391367848943804, 2.213884075840488, 0.7820140241414604, 3.1260454279683536,
                           -4.159143582947145, 0.5214699243200877, 1.802059840771714, -1.6303479866558628,
                           2.272612984367466, 5.098263767980792, -2.180237502176711, 2.3409303632550174,
                           2.0764424050098143, -0.5417807007165084, -2.3209956423575626, 5.355391242967336,
                           -1.0765089435328081, -2.2663315347264446],
              'mass_numbers': [12, 12, 16, 1, 1, 1, 1, 1, 1, 12, 12, 16, 1, 1, 1, 1, 1, 1],
              'masses': [12.0, 12.0, 15.99491461957, 1.00782503223, 1.00782503223, 1.00782503223, 1.00782503223,
                         1.00782503223, 1.00782503223, 12.0, 12.0, 15.99491461957, 1.00782503223, 1.00782503223,
                         1.00782503223, 1.00782503223, 1.00782503223, 1.00782503223],
              'molecular_charge': 0.0,
              'molecular_multiplicity': 1,
              'name': 'dimer',
              'provenance': {'creator': 'QCElemental',
                             'routine': 'qcelemental.molparse.from_string',
                             'version': '0.29.0'},
              'real': [False, False, False, False, False, False, False, False, False, True, True, True, True, True,
                       True, True, True, True],
              'schema_name': 'qcschema_molecule',
              'schema_version': 2,
              'symbols': ['C', 'C', 'O', 'H', 'H', 'H', 'H', 'H', 'H', 'C', 'C', 'O', 'H', 'H', 'H', 'H', 'H', 'H'],
              'validated': True},
 'protocols': {'stdout': True},
 'provenance': {'creator': 'QCElemental', 'routine': 'qcelemental.models.results', 'version': '0.29.0'},
 'schema_name': 'qcschema_input',
 'schema_version': 1}
--------------------------------------------------------------------------

Scratch directory: /tmp/
   => Libint2 <=

    Primary   basis highest AM E, G, H:  6, 6, 3
    Auxiliary basis highest AM E, G, H:  7, 7, 4
    Onebody   basis highest AM E, G, H:  -, -, -
    Solid Harmonics ordering:            Gaussian

*** tstart() called on Moses-MBP.lan
*** at Thu Feb 27 17:43:51 2025

   => Loading Basis Set <=

    Name: AUG-CC-PVTZ
    Role: ORBITAL
    Keyword: BASIS
    atoms 1-2, 10-11 entry C          line   239 file /Users/moseschung/miniconda3/envs/psi4/share/psi4/basis/aug-cc-pvtz.gbs 
    atoms 3, 12      entry O          line   331 file /Users/moseschung/miniconda3/envs/psi4/share/psi4/basis/aug-cc-pvtz.gbs 
    atoms 4-9, 13-18 entry H          line    40 file /Users/moseschung/miniconda3/envs/psi4/share/psi4/basis/aug-cc-pvtz.gbs 


         ---------------------------------------------------------
                                   SCF
               by Justin Turney, Rob Parrish, Andy Simmonett
                          and Daniel G. A. Smith
                              RHF Reference
                       10 Threads,   9536 MiB Core
         ---------------------------------------------------------

  ==> Geometry <==

    Molecular point group: c1
    Full point group: C1

    Geometry (in Bohr), charge = 0, multiplicity = 1:

       Center              X                  Y                   Z               Mass       
    ------------   -----------------  -----------------  -----------------  -----------------
      Gh(C)          -2.444234131629     1.847649483548     1.100113512566    12.000000000000
      Gh(C)          -3.208182374011    -0.225370627448    -0.698561828715    12.000000000000
      Gh(O)          -5.678354886439    -1.118218978574    -0.262388472520    15.994914619570
      Gh(H)          -6.811206014402     0.298363188770    -0.328589358147     1.007825032230
      Gh(H)          -0.494622585256     2.448495464042     0.769012708398     1.007825032230
      Gh(H)          -2.614927423364     1.204093802893     3.054630787961     1.007825032230
      Gh(H)          -3.662049235919     3.503234762610     0.869219215653     1.007825032230
      Gh(H)          -1.969674768648    -1.867073978392    -0.471473440219     1.007825032230
      Gh(H)          -2.984731708307     0.416660044224    -2.664379666341     1.007825032230
         C            3.422099371413    -2.209787149600     1.130819672378    12.000000000000
         C            3.745556233403    -0.469980556580    -1.102197880482    12.000000000000
         O            4.002882129633     2.082631258071    -0.380006916294    15.994914619570
         H            5.391367848944     2.213884075840     0.782014024141     1.007825032230
         H            3.126045427968    -4.159143582947     0.521469924320     1.007825032230
         H            1.802059840772    -1.630347986656     2.272612984367     1.007825032230
         H            5.098263767981    -2.180237502177     2.340930363255     1.007825032230
         H            2.076442405010    -0.541780700717    -2.320995642358     1.007825032230
         H            5.355391242967    -1.076508943533    -2.266331534726     1.007825032230

  Running in c1 symmetry.

  Rotational constants: A =      0.17700  B =      0.03875  C =      0.03530 [cm^-1]
  Rotational constants: A =   5306.35964  B =   1161.63503  C =   1058.20367 [MHz]
  Nuclear repulsion =   82.141197108762597

  Charge       = 0
  Multiplicity = 1
  Electrons    = 26
  Nalpha       = 13
  Nbeta        = 13

  ==> Algorithm <==

  SCF Algorithm Type is DF.
  DIIS enabled.
  MOM disabled.
  Fractional occupation disabled.
  Guess Type is SAD.
  Energy threshold   = 1.00e-08
  Density threshold  = 1.00e-08
  Integral threshold = 1.00e-12

  ==> Primary Basis <==

  Basis Set: AUG-CC-PVTZ
    Blend: AUG-CC-PVTZ
    Number of shells: 192
    Number of basis functions: 552
    Number of Cartesian functions: 630
    Spherical Harmonics?: true
    Max angular momentum: 3

   => Loading Basis Set <=

    Name: (AUG-CC-PVTZ AUX)
    Role: JKFIT
    Keyword: DF_BASIS_SCF
    atoms 1-2, 10-11 entry C          line   162 file /Users/moseschung/miniconda3/envs/psi4/share/psi4/basis/aug-cc-pvtz-jkfit.gbs 
    atoms 3, 12      entry O          line   286 file /Users/moseschung/miniconda3/envs/psi4/share/psi4/basis/aug-cc-pvtz-jkfit.gbs 
    atoms 4-9, 13-18 entry H          line    70 file /Users/moseschung/miniconda3/envs/psi4/share/psi4/basis/aug-cc-pvtz-jkfit.gbs 

  ==> Integral Setup <==

  DFHelper Memory: AOs need 2.608 GiB; user supplied 6.985 GiB. 
  Using in-core AOs.

  ==> MemDFJK: Density-Fitted J/K Matrices <==

    J tasked:                   Yes
    K tasked:                   Yes
    wK tasked:                   No
    OpenMP threads:              10
    Memory [MiB]:              7152
    Algorithm:                 Core
    Schwarz Cutoff:           1E-12
    Mask sparsity (%):       5.8286
    Fitting Condition:        1E-10

   => Auxiliary Basis Set <=

  Basis Set: (AUG-CC-PVTZ AUX)
    Blend: AUG-CC-PVTZ-JKFIT
    Number of shells: 348
    Number of basis functions: 1176
    Number of Cartesian functions: 1446
    Spherical Harmonics?: true
    Max angular momentum: 4

  Minimum eigenvalue in the overlap matrix is 6.6780098145E-06.
  Reciprocal condition number of the overlap matrix is 3.4577214158E-07.
    Using symmetric orthogonalization.

  ==> Pre-Iterations <==

  SCF Guess: Superposition of Atomic Densities via on-the-fly atomic UHF (no occupation information).

   -------------------------
    Irrep   Nso     Nmo    
   -------------------------
     A        552     552 
   -------------------------
    Total     552     552
   -------------------------

  ==> Iterations <==

                           Total Energy        Delta E     RMS |[F,P]|

   @DF-RHF iter SAD:  -153.45526560729397   -1.53455e+02   0.00000e+00 
   @DF-RHF iter   1:  -154.00371151496134   -5.48446e-01   9.36990e-04 DIIS/ADIIS
   @DF-RHF iter   2:  -154.11545498982460   -1.11743e-01   4.94967e-04 DIIS/ADIIS
   @DF-RHF iter   3:  -154.14334783199939   -2.78928e-02   8.37866e-05 DIIS
   @DF-RHF iter   4:  -154.14492404838327   -1.57622e-03   3.20512e-05 DIIS
   @DF-RHF iter   5:  -154.14510978308562   -1.85735e-04   6.21971e-06 DIIS
   @DF-RHF iter   6:  -154.14512008161589   -1.02985e-05   1.42679e-06 DIIS
   @DF-RHF iter   7:  -154.14512081942746   -7.37812e-07   4.06185e-07 DIIS
   @DF-RHF iter   8:  -154.14512087472508   -5.52976e-08   1.28657e-07 DIIS
   @DF-RHF iter   9:  -154.14512088091800   -6.19292e-09   3.30139e-08 DIIS
   @DF-RHF iter  10:  -154.14512088135072   -4.32721e-10   6.30146e-09 DIIS
  Energy and wave function converged.


  ==> Post-Iterations <==

    Orbital Energies [Eh]
    ---------------------

    Doubly Occupied:                                                      

       1A    -20.555371     2A    -11.273524     3A    -11.218688  
       4A     -1.361892     5A     -1.014505     6A     -0.848759  
       7A     -0.686477     8A     -0.625680     9A     -0.613143  
      10A     -0.543405    11A     -0.526528    12A     -0.481165  
      13A     -0.442920  

    Virtual:                                                              

      14A      0.024186    15A      0.032030    16A      0.035920  
      17A      0.039770    18A      0.051617    19A      0.053814  
      20A      0.054543    21A      0.058643    22A      0.075697  
      23A      0.079459    24A      0.085126    25A      0.086572  
      26A      0.097344    27A      0.101088    28A      0.114604  
      29A      0.119419    30A      0.120333    31A      0.122618  
      32A      0.135983    33A      0.139515    34A      0.144772  
      35A      0.154248    36A      0.156444    37A      0.163211  
      38A      0.165208    39A      0.169866    40A      0.175110  
      41A      0.182187    42A      0.192304    43A      0.208470  
      44A      0.214127    45A      0.223408    46A      0.232441  
      47A      0.240125    48A      0.241040    49A      0.255467  
      50A      0.256150    51A      0.258877    52A      0.266184  
      53A      0.278055    54A      0.285246    55A      0.290286  
      56A      0.303939    57A      0.306554    58A      0.312062  
      59A      0.316583    60A      0.321763    61A      0.323361  
      62A      0.333522    63A      0.340421    64A      0.345256  
      65A      0.345879    66A      0.355719    67A      0.361826  
      68A      0.364006    69A      0.378403    70A      0.380606  
      71A      0.387807    72A      0.392698    73A      0.397086  
      74A      0.402658    75A      0.404079    76A      0.412658  
      77A      0.418513    78A      0.420927    79A      0.425824  
      80A      0.437584    81A      0.444590    82A      0.451964  
      83A      0.454657    84A      0.459490    85A      0.460250  
      86A      0.465113    87A      0.479902    88A      0.482860  
      89A      0.488545    90A      0.496631    91A      0.502726  
      92A      0.510704    93A      0.516547    94A      0.524515  
      95A      0.527205    96A      0.528088    97A      0.531465  
      98A      0.543309    99A      0.548125   100A      0.554914  
     101A      0.565471   102A      0.566174   103A      0.577309  
     104A      0.580205   105A      0.592823   106A      0.599095  
     107A      0.607217   108A      0.613833   109A      0.624865  
     110A      0.630530   111A      0.633966   112A      0.644141  
     113A      0.650969   114A      0.656834   115A      0.663378  
     116A      0.670389   117A      0.682563   118A      0.686706  
     119A      0.695323   120A      0.704578   121A      0.705573  
     122A      0.722535   123A      0.739371   124A      0.742332  
     125A      0.756735   126A      0.769455   127A      0.777556  
     128A      0.794378   129A      0.812831   130A      0.826549  
     131A      0.827589   132A      0.831940   133A      0.843280  
     134A      0.855741   135A      0.859552   136A      0.868043  
     137A      0.882384   138A      0.887110   139A      0.904413  
     140A      0.907029   141A      0.910519   142A      0.920558  
     143A      0.926701   144A      0.928872   145A      0.939778  
     146A      0.950217   147A      0.956897   148A      0.973162  
     149A      0.981121   150A      0.991632   151A      0.998302  
     152A      1.003371   153A      1.009588   154A      1.018403  
     155A      1.021096   156A      1.027748   157A      1.041958  
     158A      1.048445   159A      1.052605   160A      1.061952  
     161A      1.063657   162A      1.069990   163A      1.076642  
     164A      1.082548   165A      1.087840   166A      1.100526  
     167A      1.100852   168A      1.109382   169A      1.117323  
     170A      1.125861   171A      1.131182   172A      1.132839  
     173A      1.141852   174A      1.150247   175A      1.157615  
     176A      1.164923   177A      1.168628   178A      1.176246  
     179A      1.183394   180A      1.193308   181A      1.198735  
     182A      1.202942   183A      1.211443   184A      1.222303  
     185A      1.227949   186A      1.235643   187A      1.244491  
     188A      1.246831   189A      1.255724   190A      1.261713  
     191A      1.269992   192A      1.273440   193A      1.293678  
     194A      1.307938   195A      1.312008   196A      1.320858  
     197A      1.327966   198A      1.335329   199A      1.352593  
     200A      1.364571   201A      1.367601   202A      1.376943  
     203A      1.378936   204A      1.395783   205A      1.403464  
     206A      1.407732   207A      1.417331   208A      1.425312  
     209A      1.428782   210A      1.436801   211A      1.446162  
     212A      1.452535   213A      1.459460   214A      1.472304  
     215A      1.485037   216A      1.491147   217A      1.498375  
     218A      1.506124   219A      1.523030   220A      1.526857  
     221A      1.536775   222A      1.562748   223A      1.576144  
     224A      1.577712   225A      1.585223   226A      1.593160  
     227A      1.602993   228A      1.616587   229A      1.619057  
     230A      1.638368   231A      1.643163   232A      1.658568  
     233A      1.674297   234A      1.682070   235A      1.687095  
     236A      1.704702   237A      1.714563   238A      1.716750  
     239A      1.738828   240A      1.740661   241A      1.753594  
     242A      1.765395   243A      1.774821   244A      1.790835  
     245A      1.794060   246A      1.799336   247A      1.804829  
     248A      1.827210   249A      1.841949   250A      1.850685  
     251A      1.858288   252A      1.874242   253A      1.878442  
     254A      1.896651   255A      1.912371   256A      1.915083  
     257A      1.930229   258A      1.939115   259A      1.942038  
     260A      1.960753   261A      1.966991   262A      1.992784  
     263A      2.002106   264A      2.015624   265A      2.027840  
     266A      2.036593   267A      2.047878   268A      2.053769  
     269A      2.060605   270A      2.071225   271A      2.087158  
     272A      2.100449   273A      2.104037   274A      2.124119  
     275A      2.128736   276A      2.146754   277A      2.161418  
     278A      2.173960   279A      2.185915   280A      2.191371  
     281A      2.201730   282A      2.216777   283A      2.247316  
     284A      2.258250   285A      2.266554   286A      2.272634  
     287A      2.289150   288A      2.298290   289A      2.313030  
     290A      2.341619   291A      2.348962   292A      2.358772  
     293A      2.366194   294A      2.395827   295A      2.407606  
     296A      2.451334   297A      2.458262   298A      2.472942  
     299A      2.485709   300A      2.508767   301A      2.516189  
     302A      2.538402   303A      2.547118   304A      2.574888  
     305A      2.589311   306A      2.627514   307A      2.641410  
     308A      2.656038   309A      2.692031   310A      2.701437  
     311A      2.724060   312A      2.736802   313A      2.758544  
     314A      2.774510   315A      2.779735   316A      2.795819  
     317A      2.825905   318A      2.830381   319A      2.869790  
     320A      2.881390   321A      2.883554   322A      2.912224  
     323A      2.932126   324A      2.946169   325A      2.962643  
     326A      2.987126   327A      3.021192   328A      3.040845  
     329A      3.074009   330A      3.095701   331A      3.124534  
     332A      3.178270   333A      3.205409   334A      3.214265  
     335A      3.225622   336A      3.290889   337A      3.315640  
     338A      3.330972   339A      3.350833   340A      3.370916  
     341A      3.436695   342A      3.455717   343A      3.499992  
     344A      3.523279   345A      3.542548   346A      3.567896  
     347A      3.587322   348A      3.631775   349A      3.657052  
     350A      3.671748   351A      3.689386   352A      3.712879  
     353A      3.736222   354A      3.757973   355A      3.773816  
     356A      3.785540   357A      3.799361   358A      3.832258  
     359A      3.842091   360A      3.854896   361A      3.911142  
     362A      3.913853   363A      3.944977   364A      3.959571  
     365A      3.979705   366A      3.986820   367A      4.024995  
     368A      4.039989   369A      4.058034   370A      4.094722  
     371A      4.104791   372A      4.124288   373A      4.134627  
     374A      4.151765   375A      4.168275   376A      4.182360  
     377A      4.188020   378A      4.199870   379A      4.222568  
     380A      4.235469   381A      4.236773   382A      4.250362  
     383A      4.279670   384A      4.288033   385A      4.299101  
     386A      4.309251   387A      4.349974   388A      4.378177  
     389A      4.386466   390A      4.413450   391A      4.431492  
     392A      4.434359   393A      4.461475   394A      4.468265  
     395A      4.519113   396A      4.524891   397A      4.546973  
     398A      4.566114   399A      4.580919   400A      4.593227  
     401A      4.594271   402A      4.602812   403A      4.612832  
     404A      4.619156   405A      4.630914   406A      4.647981  
     407A      4.659201   408A      4.687266   409A      4.712337  
     410A      4.719002   411A      4.729191   412A      4.741921  
     413A      4.761431   414A      4.785144   415A      4.817963  
     416A      4.824613   417A      4.834718   418A      4.858795  
     419A      4.876325   420A      4.891141   421A      4.906145  
     422A      4.907804   423A      4.925066   424A      4.935165  
     425A      4.964911   426A      4.970390   427A      4.984794  
     428A      5.006131   429A      5.019480   430A      5.033267  
     431A      5.049404   432A      5.068453   433A      5.080456  
     434A      5.083820   435A      5.105017   436A      5.138260  
     437A      5.147638   438A      5.172978   439A      5.175600  
     440A      5.194087   441A      5.231469   442A      5.247672  
     443A      5.254841   444A      5.272418   445A      5.300572  
     446A      5.336841   447A      5.351156   448A      5.366953  
     449A      5.375787   450A      5.399111   451A      5.420756  
     452A      5.427153   453A      5.461023   454A      5.480284  
     455A      5.497297   456A      5.525368   457A      5.549195  
     458A      5.552449   459A      5.571136   460A      5.584099  
     461A      5.596270   462A      5.606921   463A      5.640896  
     464A      5.652522   465A      5.655281   466A      5.682999  
     467A      5.702538   468A      5.712296   469A      5.730796  
     470A      5.768106   471A      5.789927   472A      5.804483  
     473A      5.827847   474A      5.852395   475A      5.873721  
     476A      5.900467   477A      5.917339   478A      5.964832  
     479A      6.035261   480A      6.068916   481A      6.098635  
     482A      6.108163   483A      6.124401   484A      6.148680  
     485A      6.196518   486A      6.244979   487A      6.264128  
     488A      6.272904   489A      6.287929   490A      6.307241  
     491A      6.334042   492A      6.412136   493A      6.444450  
     494A      6.482473   495A      6.523709   496A      6.708478  
     497A      6.789341   498A      6.815441   499A      6.849681  
     500A      6.856228   501A      6.913671   502A      7.004645  
     503A      7.021600   504A      7.033523   505A      7.048518  
     506A      7.127680   507A      7.146162   508A      7.184528  
     509A      7.243874   510A      7.369896   511A      7.382220  
     512A      7.411126   513A      7.518539   514A      7.539274  
     515A      7.670764   516A      7.776494   517A      7.836856  
     518A      7.857287   519A      7.867008   520A      7.880317  
     521A      7.897065   522A      7.941967   523A      7.969337  
     524A      8.046141   525A      8.115808   526A      8.190477  
     527A      8.267232   528A      8.312315   529A      8.319392  
     530A      8.383638   531A      8.444024   532A      8.593661  
     533A      8.677715   534A      8.912551   535A      9.033032  
     536A      9.999026   537A     10.058037   538A     10.274617  
     539A     10.408092   540A     10.735987   541A     10.760235  
     542A     11.085279   543A     12.014173   544A     12.331451  
     545A     13.323947   546A     14.118960   547A     16.385163  
     548A     17.875113   549A     18.911221   550A     53.450050  
     551A     55.346717   552A     66.473579  

    Final Occupation by Irrep:
              A 
    DOCC [    13 ]
    NA   [    13 ]
    NB   [    13 ]

  @DF-RHF Final Energy:  -154.14512088135072

   => Energetics <=

    Nuclear Repulsion Energy =             82.1411971087625972
    One-Electron Energy =                -372.1885206372942321
    Two-Electron Energy =                 135.9022026471809284
    Total Energy =                       -154.1451208813507208

Computation Completed


Properties will be evaluated at   0.000000,   0.000000,   0.000000 [a0]

Properties computed using the SCF density matrix


 Multipole Moments:

 ------------------------------------------------------------------------------------
     Multipole            Electronic (a.u.)      Nuclear  (a.u.)        Total (a.u.)
 ------------------------------------------------------------------------------------

 L = 1.  Multiply by 2.5417464519 to convert [e a0] to [Debye]
 Dipole X            :        -97.5179271           97.8785612            0.3606341
 Dipole Y            :          6.2233067           -6.7916908           -0.5683841
 Dipole Z            :          1.7729950           -1.5386245            0.2343705
 Magnitude           :                                                    0.7127741

 ------------------------------------------------------------------------------------

*** tstop() called on Moses-MBP.lan at Thu Feb 27 17:44:00 2025
Module time:
	user time   =      71.92 seconds =       1.20 minutes
	system time =       7.54 seconds =       0.13 minutes
	total time  =          9 seconds =       0.15 minutes
Total time:
	user time   =      71.92 seconds =       1.20 minutes
	system time =       7.54 seconds =       0.13 minutes
	total time  =          9 seconds =       0.15 minutes

*** tstart() called on Moses-MBP.lan
*** at Thu Feb 27 17:44:00 2025


  //>>>>>>>>>>>>>>>>>>>>>>>>>>>>>>>>>>>//
  //               DFMP2               //
  //<<<<<<<<<<<<<<<<<<<<<<<<<<<<<<<<<<<//

   => Loading Basis Set <=

    Name: (AUG-CC-PVTZ AUX)
    Role: RIFIT
    Keyword: DF_BASIS_MP2
    atoms 1-2, 10-11 entry C          line   148 file /Users/moseschung/miniconda3/envs/psi4/share/psi4/basis/aug-cc-pvtz-ri.gbs 
    atoms 3, 12      entry O          line   264 file /Users/moseschung/miniconda3/envs/psi4/share/psi4/basis/aug-cc-pvtz-ri.gbs 
    atoms 4-9, 13-18 entry H          line    30 file /Users/moseschung/miniconda3/envs/psi4/share/psi4/basis/aug-cc-pvtz-ri.gbs 

	 --------------------------------------------------------
	                          DF-MP2                         
	      2nd-Order Density-Fitted Moller-Plesset Theory     
	              RMP2 Wavefunction,  10 Threads             
	                                                         
	        Rob Parrish, Justin Turney, Andy Simmonett,      
	           Ed Hohenstein, and C. David Sherrill          
	 --------------------------------------------------------

   => Auxiliary Basis Set <=

  Basis Set: (AUG-CC-PVTZ AUX)
    Blend: AUG-CC-PVTZ-RI
    Number of shells: 336
    Number of basis functions: 1188
    Number of Cartesian functions: 1476
    Spherical Harmonics?: true
    Max angular momentum: 4

	 --------------------------------------------------------
	                 NBF =   552, NAUX =  1188
	 --------------------------------------------------------
	   CLASS    FOCC     OCC    AOCC    AVIR     VIR    FVIR
	   PAIRS       0      13      13     539     539       0
	 --------------------------------------------------------

	-----------------------------------------------------------
	 ==================> DF-MP2 Energies <==================== 
	-----------------------------------------------------------
	 Reference Energy          =    -154.1451208813507208 [Eh]
	 Singles Energy            =      -0.0000000000000000 [Eh]
	 Same-Spin Energy          =      -0.1482340043051025 [Eh]
	 Opposite-Spin Energy      =      -0.5185898292035759 [Eh]
	 Correlation Energy        =      -0.6668238335086784 [Eh]
	 Total Energy              =    -154.8119447148594077 [Eh]
	-----------------------------------------------------------
	 ================> DF-SCS-MP2 Energies <================== 
	-----------------------------------------------------------
	 SCS Same-Spin Scale       =       0.3333333333333333 [-]
	 SCS Opposite-Spin Scale   =       1.2000000000000000 [-]
	 SCS Same-Spin Energy      =      -0.0494113347683675 [Eh]
	 SCS Opposite-Spin Energy  =      -0.6223077950442910 [Eh]
	 SCS Correlation Energy    =      -0.6717191298126585 [Eh]
	 SCS Total Energy          =    -154.8168400111633787 [Eh]
	-----------------------------------------------------------


*** tstop() called on Moses-MBP.lan at Thu Feb 27 17:44:04 2025
Module time:
	user time   =      20.54 seconds =       0.34 minutes
	system time =       2.28 seconds =       0.04 minutes
	total time  =          4 seconds =       0.07 minutes
Total time:
	user time   =      92.47 seconds =       1.54 minutes
	system time =       9.82 seconds =       0.16 minutes
	total time  =         13 seconds =       0.22 minutes

    Psi4 stopped on: Thursday, 27 February 2025 05:44PM
    Psi4 wall time for execution: 0:00:13.35


    -----------------------------------------------------------------------
          Psi4: An Open-Source Ab Initio Electronic Structure Package
                               Psi4 1.9.1 release

                         Git: Rev {} zzzzzzz 


    D. G. A. Smith, L. A. Burns, A. C. Simmonett, R. M. Parrish,
    M. C. Schieber, R. Galvelis, P. Kraus, H. Kruse, R. Di Remigio,
    A. Alenaizan, A. M. James, S. Lehtola, J. P. Misiewicz, M. Scheurer,
    R. A. Shaw, J. B. Schriber, Y. Xie, Z. L. Glick, D. A. Sirianni,
    J. S. O'Brien, J. M. Waldrop, A. Kumar, E. G. Hohenstein,
    B. P. Pritchard, B. R. Brooks, H. F. Schaefer III, A. Yu. Sokolov,
    K. Patkowski, A. E. DePrince III, U. Bozkaya, R. A. King,
    F. A. Evangelista, J. M. Turney, T. D. Crawford, C. D. Sherrill,
    J. Chem. Phys. 152(18) 184108 (2020). https://doi.org/10.1063/5.0006002

                            Additional Code Authors
    E. T. Seidl, C. L. Janssen, E. F. Valeev, M. L. Leininger,
    J. F. Gonthier, R. M. Richard, H. R. McAlexander, M. Saitow, X. Wang,
    P. Verma, M. H. Lechner, A. Jiang, S. Behnle, A. G. Heide,
    M. F. Herbst, and D. L. Poole

             Previous Authors, Complete List of Code Contributors,
                       and Citations for Specific Modules
    https://github.com/psi4/psi4/blob/master/codemeta.json
    https://github.com/psi4/psi4/graphs/contributors
    http://psicode.org/psi4manual/master/introduction.html#citing-psifour

    -----------------------------------------------------------------------


    Psi4 started on: Thursday, 27 February 2025 05:43PM

    Process ID: 31989
    Host:       Moses-MBP.lan
    PSIDATADIR: /Users/moseschung/miniconda3/envs/psi4/share/psi4
    Memory:     9.3 GiB
    Threads:    10
    
  ==> Input QCSchema <==

--------------------------------------------------------------------------
{'driver': 'energy',
 'extras': {'psiapi': True, 'wfn_qcvars_only': True},
 'id': None,
 'keywords': {'SCF_TYPE': 'DF', 'function_kwargs': {}},
 'model': {'basis': 'aug-cc-pvtz', 'method': 'mp2'},
 'molecule': {'atom_labels': ['', '', '', '', '', '', '', '', '', '', '', '', '', '', '', '', '', ''],
              'atomic_numbers': [6, 6, 8, 1, 1, 1, 1, 1, 1, 6, 6, 8, 1, 1, 1, 1, 1, 1],
              'extras': {},
              'fix_com': True,
              'fix_orientation': True,
              'fix_symmetry': 'c1',
              'fragment_charges': [0.0, 0.0],
              'fragment_multiplicities': [1, 1],
              'fragments': [[0, 1, 2, 3, 4, 5, 6, 7, 8], [9, 10, 11, 12, 13, 14, 15, 16, 17]],
              'geometry': [-2.4442341316292953, 1.847649483548384, 1.1001135125659018, -3.2081823740113786,
                           -0.22537062744822606, -0.6985618287151172, -5.678354886438708, -1.1182189785739134,
                           -0.26238847251981945, -6.811206014402041, 0.2983631887701601, -0.3285893581468581,
                           -0.4946225852557083, 2.4484954640422023, 0.7690127083983104, -2.6149274233635245,
                           1.2040938028930936, 3.054630787961177, -3.6620492359193375, 3.503234762609736,
                           0.8692192156529627, -1.9696747686475726, -1.8670739783919652, -0.4714734402188499,
                           -2.984731708306618, 0.41666004422382014, -2.66437966634063, 3.4220993714132044,
                           -2.209787149600495, 1.1308196723784663, 3.745556233403319, -0.46998055657973825,
                           -1.102197880482282, 4.002882129633037, 2.082631258070689, -0.3800069162944401,
                           5.391367848943804, 2.213884075840488, 0.7820140241414604, 3.1260454279683536,
                           -4.159143582947145, 0.5214699243200877, 1.802059840771714, -1.6303479866558628,
                           2.272612984367466, 5.098263767980792, -2.180237502176711, 2.3409303632550174,
                           2.0764424050098143, -0.5417807007165084, -2.3209956423575626, 5.355391242967336,
                           -1.0765089435328081, -2.2663315347264446],
              'mass_numbers': [12, 12, 16, 1, 1, 1, 1, 1, 1, 12, 12, 16, 1, 1, 1, 1, 1, 1],
              'masses': [12.0, 12.0, 15.99491461957, 1.00782503223, 1.00782503223, 1.00782503223, 1.00782503223,
                         1.00782503223, 1.00782503223, 12.0, 12.0, 15.99491461957, 1.00782503223, 1.00782503223,
                         1.00782503223, 1.00782503223, 1.00782503223, 1.00782503223],
              'molecular_charge': 0.0,
              'molecular_multiplicity': 1,
              'name': 'dimer',
              'provenance': {'creator': 'QCElemental',
                             'routine': 'qcelemental.molparse.from_string',
                             'version': '0.29.0'},
              'real': [True, True, True, True, True, True, True, True, True, False, False, False, False, False, False,
                       False, False, False],
              'schema_name': 'qcschema_molecule',
              'schema_version': 2,
              'symbols': ['C', 'C', 'O', 'H', 'H', 'H', 'H', 'H', 'H', 'C', 'C', 'O', 'H', 'H', 'H', 'H', 'H', 'H'],
              'validated': True},
 'protocols': {'stdout': True},
 'provenance': {'creator': 'QCElemental', 'routine': 'qcelemental.models.results', 'version': '0.29.0'},
 'schema_name': 'qcschema_input',
 'schema_version': 1}
--------------------------------------------------------------------------

Scratch directory: /tmp/
   => Libint2 <=

    Primary   basis highest AM E, G, H:  6, 6, 3
    Auxiliary basis highest AM E, G, H:  7, 7, 4
    Onebody   basis highest AM E, G, H:  -, -, -
    Solid Harmonics ordering:            Gaussian

*** tstart() called on Moses-MBP.lan
*** at Thu Feb 27 17:44:04 2025

   => Loading Basis Set <=

    Name: AUG-CC-PVTZ
    Role: ORBITAL
    Keyword: BASIS
    atoms 1-2, 10-11 entry C          line   239 file /Users/moseschung/miniconda3/envs/psi4/share/psi4/basis/aug-cc-pvtz.gbs 
    atoms 3, 12      entry O          line   331 file /Users/moseschung/miniconda3/envs/psi4/share/psi4/basis/aug-cc-pvtz.gbs 
    atoms 4-9, 13-18 entry H          line    40 file /Users/moseschung/miniconda3/envs/psi4/share/psi4/basis/aug-cc-pvtz.gbs 


         ---------------------------------------------------------
                                   SCF
               by Justin Turney, Rob Parrish, Andy Simmonett
                          and Daniel G. A. Smith
                              RHF Reference
                       10 Threads,   9536 MiB Core
         ---------------------------------------------------------

  ==> Geometry <==

    Molecular point group: c1
    Full point group: C1

    Geometry (in Bohr), charge = 0, multiplicity = 1:

       Center              X                  Y                   Z               Mass       
    ------------   -----------------  -----------------  -----------------  -----------------
         C           -2.444234131629     1.847649483548     1.100113512566    12.000000000000
         C           -3.208182374011    -0.225370627448    -0.698561828715    12.000000000000
         O           -5.678354886439    -1.118218978574    -0.262388472520    15.994914619570
         H           -6.811206014402     0.298363188770    -0.328589358147     1.007825032230
         H           -0.494622585256     2.448495464042     0.769012708398     1.007825032230
         H           -2.614927423364     1.204093802893     3.054630787961     1.007825032230
         H           -3.662049235919     3.503234762610     0.869219215653     1.007825032230
         H           -1.969674768648    -1.867073978392    -0.471473440219     1.007825032230
         H           -2.984731708307     0.416660044224    -2.664379666341     1.007825032230
      Gh(C)           3.422099371413    -2.209787149600     1.130819672378    12.000000000000
      Gh(C)           3.745556233403    -0.469980556580    -1.102197880482    12.000000000000
      Gh(O)           4.002882129633     2.082631258071    -0.380006916294    15.994914619570
      Gh(H)           5.391367848944     2.213884075840     0.782014024141     1.007825032230
      Gh(H)           3.126045427968    -4.159143582947     0.521469924320     1.007825032230
      Gh(H)           1.802059840772    -1.630347986656     2.272612984367     1.007825032230
      Gh(H)           5.098263767981    -2.180237502177     2.340930363255     1.007825032230
      Gh(H)           2.076442405010    -0.541780700717    -2.320995642358     1.007825032230
      Gh(H)           5.355391242967    -1.076508943533    -2.266331534726     1.007825032230

  Running in c1 symmetry.

  Rotational constants: A =      0.17700  B =      0.03875  C =      0.03530 [cm^-1]
  Rotational constants: A =   5306.35964  B =   1161.63503  C =   1058.20367 [MHz]
  Nuclear repulsion =   82.142364456758401

  Charge       = 0
  Multiplicity = 1
  Electrons    = 26
  Nalpha       = 13
  Nbeta        = 13

  ==> Algorithm <==

  SCF Algorithm Type is DF.
  DIIS enabled.
  MOM disabled.
  Fractional occupation disabled.
  Guess Type is SAD.
  Energy threshold   = 1.00e-08
  Density threshold  = 1.00e-08
  Integral threshold = 1.00e-12

  ==> Primary Basis <==

  Basis Set: AUG-CC-PVTZ
    Blend: AUG-CC-PVTZ
    Number of shells: 192
    Number of basis functions: 552
    Number of Cartesian functions: 630
    Spherical Harmonics?: true
    Max angular momentum: 3

   => Loading Basis Set <=

    Name: (AUG-CC-PVTZ AUX)
    Role: JKFIT
    Keyword: DF_BASIS_SCF
    atoms 1-2, 10-11 entry C          line   162 file /Users/moseschung/miniconda3/envs/psi4/share/psi4/basis/aug-cc-pvtz-jkfit.gbs 
    atoms 3, 12      entry O          line   286 file /Users/moseschung/miniconda3/envs/psi4/share/psi4/basis/aug-cc-pvtz-jkfit.gbs 
    atoms 4-9, 13-18 entry H          line    70 file /Users/moseschung/miniconda3/envs/psi4/share/psi4/basis/aug-cc-pvtz-jkfit.gbs 

  ==> Integral Setup <==

  DFHelper Memory: AOs need 2.608 GiB; user supplied 6.985 GiB. 
  Using in-core AOs.

  ==> MemDFJK: Density-Fitted J/K Matrices <==

    J tasked:                   Yes
    K tasked:                   Yes
    wK tasked:                   No
    OpenMP threads:              10
    Memory [MiB]:              7152
    Algorithm:                 Core
    Schwarz Cutoff:           1E-12
    Mask sparsity (%):       5.8286
    Fitting Condition:        1E-10

   => Auxiliary Basis Set <=

  Basis Set: (AUG-CC-PVTZ AUX)
    Blend: AUG-CC-PVTZ-JKFIT
    Number of shells: 348
    Number of basis functions: 1176
    Number of Cartesian functions: 1446
    Spherical Harmonics?: true
    Max angular momentum: 4

  Minimum eigenvalue in the overlap matrix is 6.6780098145E-06.
  Reciprocal condition number of the overlap matrix is 3.4577214158E-07.
    Using symmetric orthogonalization.

  ==> Pre-Iterations <==

  SCF Guess: Superposition of Atomic Densities via on-the-fly atomic UHF (no occupation information).

   -------------------------
    Irrep   Nso     Nmo    
   -------------------------
     A        552     552 
   -------------------------
    Total     552     552
   -------------------------

  ==> Iterations <==

                           Total Energy        Delta E     RMS |[F,P]|

   @DF-RHF iter SAD:  -153.45760854271592   -1.53458e+02   0.00000e+00 
   @DF-RHF iter   1:  -154.00369327203006   -5.46085e-01   9.36290e-04 DIIS/ADIIS
   @DF-RHF iter   2:  -154.11543455099252   -1.11741e-01   4.94039e-04 DIIS/ADIIS
   @DF-RHF iter   3:  -154.14323628471953   -2.78017e-02   8.36799e-05 DIIS
   @DF-RHF iter   4:  -154.14481131423861   -1.57503e-03   3.20077e-05 DIIS
   @DF-RHF iter   5:  -154.14499649249217   -1.85178e-04   6.22070e-06 DIIS
   @DF-RHF iter   6:  -154.14500677376569   -1.02813e-05   1.42664e-06 DIIS
   @DF-RHF iter   7:  -154.14500750966204   -7.35896e-07   4.06004e-07 DIIS
   @DF-RHF iter   8:  -154.14500756467012   -5.50081e-08   1.28320e-07 DIIS
   @DF-RHF iter   9:  -154.14500757081905   -6.14892e-09   3.28685e-08 DIIS
   @DF-RHF iter  10:  -154.14500757124711   -4.28059e-10   6.26661e-09 DIIS
  Energy and wave function converged.


  ==> Post-Iterations <==

    Orbital Energies [Eh]
    ---------------------

    Doubly Occupied:                                                      

       1A    -20.555974     2A    -11.273537     3A    -11.219102  
       4A     -1.362882     5A     -1.014619     6A     -0.848413  
       7A     -0.686639     8A     -0.625858     9A     -0.613581  
      10A     -0.543556    11A     -0.526809    12A     -0.481378  
      13A     -0.442596  

    Virtual:                                                              

      14A      0.021537    15A      0.031635    16A      0.035779  
      17A      0.038317    18A      0.051983    19A      0.052853  
      20A      0.054741    21A      0.059227    22A      0.075751  
      23A      0.079881    24A      0.081062    25A      0.087435  
      26A      0.094960    27A      0.095150    28A      0.113921  
      29A      0.115454    30A      0.120122    31A      0.128433  
      32A      0.134420    33A      0.140422    34A      0.147734  
      35A      0.151615    36A      0.154140    37A      0.156518  
      38A      0.163808    39A      0.168208    40A      0.175079  
      41A      0.179675    42A      0.198598    43A      0.202342  
      44A      0.212348    45A      0.220144    46A      0.223720  
      47A      0.231647    48A      0.244143    49A      0.247550  
      50A      0.251088    51A      0.257235    52A      0.271816  
      53A      0.278106    54A      0.293656    55A      0.294611  
      56A      0.297120    57A      0.302034    58A      0.312167  
      59A      0.314112    60A      0.326087    61A      0.328750  
      62A      0.336394    63A      0.340245    64A      0.343935  
      65A      0.353891    66A      0.356750    67A      0.359077  
      68A      0.363189    69A      0.368143    70A      0.375520  
      71A      0.380684    72A      0.387405    73A      0.393238  
      74A      0.398113    75A      0.401505    76A      0.405288  
      77A      0.413209    78A      0.419449    79A      0.425946  
      80A      0.432547    81A      0.440089    82A      0.441994  
      83A      0.445436    84A      0.454108    85A      0.462635  
      86A      0.467165    87A      0.472745    88A      0.477771  
      89A      0.488246    90A      0.495766    91A      0.496002  
      92A      0.504835    93A      0.511630    94A      0.514448  
      95A      0.522394    96A      0.529502    97A      0.537181  
      98A      0.548508    99A      0.552887   100A      0.555959  
     101A      0.561312   102A      0.569425   103A      0.571892  
     104A      0.576513   105A      0.589510   106A      0.594555  
     107A      0.603568   108A      0.609062   109A      0.619285  
     110A      0.631810   111A      0.637656   112A      0.644021  
     113A      0.651403   114A      0.655608   115A      0.664542  
     116A      0.668427   117A      0.679673   118A      0.682798  
     119A      0.698198   120A      0.704625   121A      0.713080  
     122A      0.730272   123A      0.739117   124A      0.756653  
     125A      0.760126   126A      0.761336   127A      0.780464  
     128A      0.782422   129A      0.799914   130A      0.810321  
     131A      0.817593   132A      0.825649   133A      0.838771  
     134A      0.851210   135A      0.858755   136A      0.858851  
     137A      0.865511   138A      0.873108   139A      0.888367  
     140A      0.897120   141A      0.906358   142A      0.914692  
     143A      0.922260   144A      0.927437   145A      0.937357  
     146A      0.947858   147A      0.952392   148A      0.964756  
     149A      0.976066   150A      0.988597   151A      0.996443  
     152A      0.998690   153A      1.006256   154A      1.009207  
     155A      1.016642   156A      1.029479   157A      1.035200  
     158A      1.039381   159A      1.043676   160A      1.050584  
     161A      1.060624   162A      1.076166   163A      1.079485  
     164A      1.083437   165A      1.093038   166A      1.096512  
     167A      1.099900   168A      1.103117   169A      1.109271  
     170A      1.120398   171A      1.123717   172A      1.128376  
     173A      1.136886   174A      1.143077   175A      1.151115  
     176A      1.159740   177A      1.170912   178A      1.179562  
     179A      1.185038   180A      1.194814   181A      1.199547  
     182A      1.205930   183A      1.212808   184A      1.220389  
     185A      1.233486   186A      1.246023   187A      1.248694  
     188A      1.252933   189A      1.259010   190A      1.268480  
     191A      1.274154   192A      1.280703   193A      1.295505  
     194A      1.301814   195A      1.309954   196A      1.315285  
     197A      1.317116   198A      1.329912   199A      1.344043  
     200A      1.347791   201A      1.353019   202A      1.360772  
     203A      1.379333   204A      1.383313   205A      1.399975  
     206A      1.404014   207A      1.414613   208A      1.429348  
     209A      1.440427   210A      1.444040   211A      1.449647  
     212A      1.452161   213A      1.457103   214A      1.468366  
     215A      1.482779   216A      1.497713   217A      1.504664  
     218A      1.519578   219A      1.520143   220A      1.529703  
     221A      1.538249   222A      1.546927   223A      1.556765  
     224A      1.571155   225A      1.576666   226A      1.594765  
     227A      1.599881   228A      1.614464   229A      1.622016  
     230A      1.632718   231A      1.646424   232A      1.652319  
     233A      1.665353   234A      1.675682   235A      1.692162  
     236A      1.702751   237A      1.706395   238A      1.713650  
     239A      1.722004   240A      1.731621   241A      1.735553  
     242A      1.753876   243A      1.762660   244A      1.768376  
     245A      1.782590   246A      1.791429   247A      1.806757  
     248A      1.815078   249A      1.828733   250A      1.840604  
     251A      1.857427   252A      1.860391   253A      1.879579  
     254A      1.886243   255A      1.895954   256A      1.902052  
     257A      1.925460   258A      1.940883   259A      1.951170  
     260A      1.958605   261A      1.975849   262A      1.979329  
     263A      1.991782   264A      2.010647   265A      2.014748  
     266A      2.019188   267A      2.030272   268A      2.051286  
     269A      2.053802   270A      2.073931   271A      2.075787  
     272A      2.090038   273A      2.106197   274A      2.108098  
     275A      2.134998   276A      2.141408   277A      2.152071  
     278A      2.162957   279A      2.185552   280A      2.193269  
     281A      2.198984   282A      2.220944   283A      2.239274  
     284A      2.247100   285A      2.254434   286A      2.259768  
     287A      2.297266   288A      2.303700   289A      2.316198  
     290A      2.329288   291A      2.341058   292A      2.347692  
     293A      2.369778   294A      2.384175   295A      2.400120  
     296A      2.420707   297A      2.431994   298A      2.444216  
     299A      2.469948   300A      2.494301   301A      2.503442  
     302A      2.521119   303A      2.547073   304A      2.577233  
     305A      2.586194   306A      2.624362   307A      2.635568  
     308A      2.651255   309A      2.680077   310A      2.688329  
     311A      2.699318   312A      2.723137   313A      2.734399  
     314A      2.769582   315A      2.776061   316A      2.804304  
     317A      2.817507   318A      2.854447   319A      2.860021  
     320A      2.883594   321A      2.892089   322A      2.900667  
     323A      2.943466   324A      2.961018   325A      2.989061  
     326A      3.011029   327A      3.030713   328A      3.075382  
     329A      3.105683   330A      3.125517   331A      3.133667  
     332A      3.155882   333A      3.170752   334A      3.230640  
     335A      3.239041   336A      3.259691   337A      3.306913  
     338A      3.321910   339A      3.360300   340A      3.401193  
     341A      3.457831   342A      3.476130   343A      3.502064  
     344A      3.515944   345A      3.537620   346A      3.564871  
     347A      3.612622   348A      3.628065   349A      3.631788  
     350A      3.670980   351A      3.679064   352A      3.699177  
     353A      3.708112   354A      3.727564   355A      3.761800  
     356A      3.793027   357A      3.818589   358A      3.849360  
     359A      3.855354   360A      3.859133   361A      3.891549  
     362A      3.901229   363A      3.921392   364A      3.943415  
     365A      3.975664   366A      3.989788   367A      4.006200  
     368A      4.023288   369A      4.038768   370A      4.071682  
     371A      4.098584   372A      4.108765   373A      4.142392  
     374A      4.155663   375A      4.167963   376A      4.181432  
     377A      4.192919   378A      4.205880   379A      4.217508  
     380A      4.230085   381A      4.238470   382A      4.242568  
     383A      4.253759   384A      4.293318   385A      4.302467  
     386A      4.326107   387A      4.347659   388A      4.352202  
     389A      4.387631   390A      4.389867   391A      4.406085  
     392A      4.432989   393A      4.449232   394A      4.463260  
     395A      4.488295   396A      4.502493   397A      4.521775  
     398A      4.540013   399A      4.555113   400A      4.578715  
     401A      4.593212   402A      4.613790   403A      4.618397  
     404A      4.626863   405A      4.638719   406A      4.664517  
     407A      4.678373   408A      4.681399   409A      4.717545  
     410A      4.725366   411A      4.732921   412A      4.741137  
     413A      4.756902   414A      4.775063   415A      4.786351  
     416A      4.817566   417A      4.844928   418A      4.861008  
     419A      4.871634   420A      4.887682   421A      4.902406  
     422A      4.918077   423A      4.940542   424A      4.946174  
     425A      4.947278   426A      4.973146   427A      4.980768  
     428A      4.996792   429A      5.016365   430A      5.033595  
     431A      5.054898   432A      5.057609   433A      5.075598  
     434A      5.082959   435A      5.106216   436A      5.134446  
     437A      5.144722   438A      5.160830   439A      5.197003  
     440A      5.225829   441A      5.239171   442A      5.253878  
     443A      5.276352   444A      5.293229   445A      5.317485  
     446A      5.327534   447A      5.348799   448A      5.362328  
     449A      5.387896   450A      5.407600   451A      5.422400  
     452A      5.434755   453A      5.445060   454A      5.455822  
     455A      5.495502   456A      5.508985   457A      5.521129  
     458A      5.551855   459A      5.568319   460A      5.577294  
     461A      5.594362   462A      5.607595   463A      5.624375  
     464A      5.644058   465A      5.661795   466A      5.669232  
     467A      5.687924   468A      5.720435   469A      5.727229  
     470A      5.744791   471A      5.761422   472A      5.786855  
     473A      5.789700   474A      5.817217   475A      5.854529  
     476A      5.889602   477A      5.911695   478A      5.986834  
     479A      6.008071   480A      6.055391   481A      6.066467  
     482A      6.107350   483A      6.138157   484A      6.161940  
     485A      6.182534   486A      6.210187   487A      6.226399  
     488A      6.264504   489A      6.275883   490A      6.294945  
     491A      6.305405   492A      6.368858   493A      6.472264  
     494A      6.484664   495A      6.553547   496A      6.719241  
     497A      6.740102   498A      6.810690   499A      6.838935  
     500A      6.874457   501A      6.916124   502A      6.961324  
     503A      6.979733   504A      6.992397   505A      7.044273  
     506A      7.095871   507A      7.139074   508A      7.156201  
     509A      7.199767   510A      7.351127   511A      7.374912  
     512A      7.395506   513A      7.482009   514A      7.547741  
     515A      7.657561   516A      7.778974   517A      7.830307  
     518A      7.853685   519A      7.865276   520A      7.870925  
     521A      7.930986   522A      7.938601   523A      7.940265  
     524A      8.040086   525A      8.152486   526A      8.168077  
     527A      8.259897   528A      8.301746   529A      8.319927  
     530A      8.377068   531A      8.433897   532A      8.591249  
     533A      8.612403   534A      8.918715   535A      9.022294  
     536A     10.012822   537A     10.124415   538A     10.247013  
     539A     10.402506   540A     10.710894   541A     10.749028  
     542A     11.071681   543A     12.082212   544A     12.428728  
     545A     13.305987   546A     14.112871   547A     16.306146  
     548A     18.060851   549A     19.050121   550A     53.026699  
     551A     54.891801   552A     66.954577  

    Final Occupation by Irrep:
              A 
    DOCC [    13 ]
    NA   [    13 ]
    NB   [    13 ]

  @DF-RHF Final Energy:  -154.14500757124711

   => Energetics <=

    Nuclear Repulsion Energy =             82.1423644567584006
    One-Electron Energy =                -372.1848571493173381
    Two-Electron Energy =                 135.8974851213118313
    Total Energy =                       -154.1450075712471062

Computation Completed


Properties will be evaluated at   0.000000,   0.000000,   0.000000 [a0]

Properties computed using the SCF density matrix


 Multipole Moments:

 ------------------------------------------------------------------------------------
     Multipole            Electronic (a.u.)      Nuclear  (a.u.)        Total (a.u.)
 ------------------------------------------------------------------------------------

 L = 1.  Multiply by 2.5417464519 to convert [e a0] to [Debye]
 Dipole X            :         98.1012946          -97.8785499            0.2227448
 Dipole Y            :         -6.1187806            6.7916946            0.6729140
 Dipole Z            :         -1.6218868            1.5386226           -0.0832642
 Magnitude           :                                                    0.7136956

 ------------------------------------------------------------------------------------

*** tstop() called on Moses-MBP.lan at Thu Feb 27 17:44:14 2025
Module time:
	user time   =      71.96 seconds =       1.20 minutes
	system time =       6.70 seconds =       0.11 minutes
	total time  =         10 seconds =       0.17 minutes
Total time:
	user time   =     164.67 seconds =       2.74 minutes
	system time =      16.62 seconds =       0.28 minutes
	total time  =         23 seconds =       0.38 minutes

*** tstart() called on Moses-MBP.lan
*** at Thu Feb 27 17:44:14 2025


  //>>>>>>>>>>>>>>>>>>>>>>>>>>>>>>>>>>>//
  //               DFMP2               //
  //<<<<<<<<<<<<<<<<<<<<<<<<<<<<<<<<<<<//

   => Loading Basis Set <=

    Name: (AUG-CC-PVTZ AUX)
    Role: RIFIT
    Keyword: DF_BASIS_MP2
    atoms 1-2, 10-11 entry C          line   148 file /Users/moseschung/miniconda3/envs/psi4/share/psi4/basis/aug-cc-pvtz-ri.gbs 
    atoms 3, 12      entry O          line   264 file /Users/moseschung/miniconda3/envs/psi4/share/psi4/basis/aug-cc-pvtz-ri.gbs 
    atoms 4-9, 13-18 entry H          line    30 file /Users/moseschung/miniconda3/envs/psi4/share/psi4/basis/aug-cc-pvtz-ri.gbs 

	 --------------------------------------------------------
	                          DF-MP2                         
	      2nd-Order Density-Fitted Moller-Plesset Theory     
	              RMP2 Wavefunction,  10 Threads             
	                                                         
	        Rob Parrish, Justin Turney, Andy Simmonett,      
	           Ed Hohenstein, and C. David Sherrill          
	 --------------------------------------------------------

   => Auxiliary Basis Set <=

  Basis Set: (AUG-CC-PVTZ AUX)
    Blend: AUG-CC-PVTZ-RI
    Number of shells: 336
    Number of basis functions: 1188
    Number of Cartesian functions: 1476
    Spherical Harmonics?: true
    Max angular momentum: 4

	 --------------------------------------------------------
	                 NBF =   552, NAUX =  1188
	 --------------------------------------------------------
	   CLASS    FOCC     OCC    AOCC    AVIR     VIR    FVIR
	   PAIRS       0      13      13     539     539       0
	 --------------------------------------------------------

	-----------------------------------------------------------
	 ==================> DF-MP2 Energies <==================== 
	-----------------------------------------------------------
	 Reference Energy          =    -154.1450075712471062 [Eh]
	 Singles Energy            =      -0.0000000000000000 [Eh]
	 Same-Spin Energy          =      -0.1482363566551592 [Eh]
	 Opposite-Spin Energy      =      -0.5186324950558765 [Eh]
	 Correlation Energy        =      -0.6668688517110357 [Eh]
	 Total Energy              =    -154.8118764229581359 [Eh]
	-----------------------------------------------------------
	 ================> DF-SCS-MP2 Energies <================== 
	-----------------------------------------------------------
	 SCS Same-Spin Scale       =       0.3333333333333333 [-]
	 SCS Opposite-Spin Scale   =       1.2000000000000000 [-]
	 SCS Same-Spin Energy      =      -0.0494121188850530 [Eh]
	 SCS Opposite-Spin Energy  =      -0.6223589940670518 [Eh]
	 SCS Correlation Energy    =      -0.6717711129521048 [Eh]
	 SCS Total Energy          =    -154.8167786841992211 [Eh]
	-----------------------------------------------------------


*** tstop() called on Moses-MBP.lan at Thu Feb 27 17:44:17 2025
Module time:
	user time   =      20.25 seconds =       0.34 minutes
	system time =       1.89 seconds =       0.03 minutes
	total time  =          3 seconds =       0.05 minutes
Total time:
	user time   =     184.92 seconds =       3.08 minutes
	system time =      18.52 seconds =       0.31 minutes
	total time  =         26 seconds =       0.43 minutes

    Psi4 stopped on: Thursday, 27 February 2025 05:44PM
    Psi4 wall time for execution: 0:00:12.96


    -----------------------------------------------------------------------
          Psi4: An Open-Source Ab Initio Electronic Structure Package
                               Psi4 1.9.1 release

                         Git: Rev {} zzzzzzz 


    D. G. A. Smith, L. A. Burns, A. C. Simmonett, R. M. Parrish,
    M. C. Schieber, R. Galvelis, P. Kraus, H. Kruse, R. Di Remigio,
    A. Alenaizan, A. M. James, S. Lehtola, J. P. Misiewicz, M. Scheurer,
    R. A. Shaw, J. B. Schriber, Y. Xie, Z. L. Glick, D. A. Sirianni,
    J. S. O'Brien, J. M. Waldrop, A. Kumar, E. G. Hohenstein,
    B. P. Pritchard, B. R. Brooks, H. F. Schaefer III, A. Yu. Sokolov,
    K. Patkowski, A. E. DePrince III, U. Bozkaya, R. A. King,
    F. A. Evangelista, J. M. Turney, T. D. Crawford, C. D. Sherrill,
    J. Chem. Phys. 152(18) 184108 (2020). https://doi.org/10.1063/5.0006002

                            Additional Code Authors
    E. T. Seidl, C. L. Janssen, E. F. Valeev, M. L. Leininger,
    J. F. Gonthier, R. M. Richard, H. R. McAlexander, M. Saitow, X. Wang,
    P. Verma, M. H. Lechner, A. Jiang, S. Behnle, A. G. Heide,
    M. F. Herbst, and D. L. Poole

             Previous Authors, Complete List of Code Contributors,
                       and Citations for Specific Modules
    https://github.com/psi4/psi4/blob/master/codemeta.json
    https://github.com/psi4/psi4/graphs/contributors
    http://psicode.org/psi4manual/master/introduction.html#citing-psifour

    -----------------------------------------------------------------------


    Psi4 started on: Thursday, 27 February 2025 05:43PM

    Process ID: 31989
    Host:       Moses-MBP.lan
    PSIDATADIR: /Users/moseschung/miniconda3/envs/psi4/share/psi4
    Memory:     9.3 GiB
    Threads:    10
    
  ==> Input QCSchema <==

--------------------------------------------------------------------------
{'driver': 'energy',
 'extras': {'psiapi': True, 'wfn_qcvars_only': True},
 'id': None,
 'keywords': {'SCF_TYPE': 'DF', 'function_kwargs': {}},
 'model': {'basis': 'aug-cc-pvtz', 'method': 'mp2'},
 'molecule': {'atom_labels': ['', '', '', '', '', '', '', '', '', '', '', '', '', '', '', '', '', ''],
              'atomic_numbers': [6, 6, 8, 1, 1, 1, 1, 1, 1, 6, 6, 8, 1, 1, 1, 1, 1, 1],
              'extras': {},
              'fix_com': True,
              'fix_orientation': True,
              'fix_symmetry': 'c1',
              'fragment_charges': [0.0, 0.0],
              'fragment_multiplicities': [1, 1],
              'fragments': [[0, 1, 2, 3, 4, 5, 6, 7, 8], [9, 10, 11, 12, 13, 14, 15, 16, 17]],
              'geometry': [-2.4442341316292953, 1.847649483548384, 1.1001135125659018, -3.2081823740113786,
                           -0.22537062744822606, -0.6985618287151172, -5.678354886438708, -1.1182189785739134,
                           -0.26238847251981945, -6.811206014402041, 0.2983631887701601, -0.3285893581468581,
                           -0.4946225852557083, 2.4484954640422023, 0.7690127083983104, -2.6149274233635245,
                           1.2040938028930936, 3.054630787961177, -3.6620492359193375, 3.503234762609736,
                           0.8692192156529627, -1.9696747686475726, -1.8670739783919652, -0.4714734402188499,
                           -2.984731708306618, 0.41666004422382014, -2.66437966634063, 3.4220993714132044,
                           -2.209787149600495, 1.1308196723784663, 3.745556233403319, -0.46998055657973825,
                           -1.102197880482282, 4.002882129633037, 2.082631258070689, -0.3800069162944401,
                           5.391367848943804, 2.213884075840488, 0.7820140241414604, 3.1260454279683536,
                           -4.159143582947145, 0.5214699243200877, 1.802059840771714, -1.6303479866558628,
                           2.272612984367466, 5.098263767980792, -2.180237502176711, 2.3409303632550174,
                           2.0764424050098143, -0.5417807007165084, -2.3209956423575626, 5.355391242967336,
                           -1.0765089435328081, -2.2663315347264446],
              'mass_numbers': [12, 12, 16, 1, 1, 1, 1, 1, 1, 12, 12, 16, 1, 1, 1, 1, 1, 1],
              'masses': [12.0, 12.0, 15.99491461957, 1.00782503223, 1.00782503223, 1.00782503223, 1.00782503223,
                         1.00782503223, 1.00782503223, 12.0, 12.0, 15.99491461957, 1.00782503223, 1.00782503223,
                         1.00782503223, 1.00782503223, 1.00782503223, 1.00782503223],
              'molecular_charge': 0.0,
              'molecular_multiplicity': 1,
              'name': 'dimer',
              'provenance': {'creator': 'QCElemental',
                             'routine': 'qcelemental.molparse.from_string',
                             'version': '0.29.0'},
              'real': [True, True, True, True, True, True, True, True, True, True, True, True, True, True, True, True,
                       True, True],
              'schema_name': 'qcschema_molecule',
              'schema_version': 2,
              'symbols': ['C', 'C', 'O', 'H', 'H', 'H', 'H', 'H', 'H', 'C', 'C', 'O', 'H', 'H', 'H', 'H', 'H', 'H'],
              'validated': True},
 'protocols': {'stdout': True},
 'provenance': {'creator': 'QCElemental', 'routine': 'qcelemental.models.results', 'version': '0.29.0'},
 'schema_name': 'qcschema_input',
 'schema_version': 1}
--------------------------------------------------------------------------

Scratch directory: /tmp/
   => Libint2 <=

    Primary   basis highest AM E, G, H:  6, 6, 3
    Auxiliary basis highest AM E, G, H:  7, 7, 4
    Onebody   basis highest AM E, G, H:  -, -, -
    Solid Harmonics ordering:            Gaussian

*** tstart() called on Moses-MBP.lan
*** at Thu Feb 27 17:44:17 2025

   => Loading Basis Set <=

    Name: AUG-CC-PVTZ
    Role: ORBITAL
    Keyword: BASIS
    atoms 1-2, 10-11 entry C          line   239 file /Users/moseschung/miniconda3/envs/psi4/share/psi4/basis/aug-cc-pvtz.gbs 
    atoms 3, 12      entry O          line   331 file /Users/moseschung/miniconda3/envs/psi4/share/psi4/basis/aug-cc-pvtz.gbs 
    atoms 4-9, 13-18 entry H          line    40 file /Users/moseschung/miniconda3/envs/psi4/share/psi4/basis/aug-cc-pvtz.gbs 


         ---------------------------------------------------------
                                   SCF
               by Justin Turney, Rob Parrish, Andy Simmonett
                          and Daniel G. A. Smith
                              RHF Reference
                       10 Threads,   9536 MiB Core
         ---------------------------------------------------------

  ==> Geometry <==

    Molecular point group: c1
    Full point group: C1

    Geometry (in Bohr), charge = 0, multiplicity = 1:

       Center              X                  Y                   Z               Mass       
    ------------   -----------------  -----------------  -----------------  -----------------
         C           -2.444234131629     1.847649483548     1.100113512566    12.000000000000
         C           -3.208182374011    -0.225370627448    -0.698561828715    12.000000000000
         O           -5.678354886439    -1.118218978574    -0.262388472520    15.994914619570
         H           -6.811206014402     0.298363188770    -0.328589358147     1.007825032230
         H           -0.494622585256     2.448495464042     0.769012708398     1.007825032230
         H           -2.614927423364     1.204093802893     3.054630787961     1.007825032230
         H           -3.662049235919     3.503234762610     0.869219215653     1.007825032230
         H           -1.969674768648    -1.867073978392    -0.471473440219     1.007825032230
         H           -2.984731708307     0.416660044224    -2.664379666341     1.007825032230
         C            3.422099371413    -2.209787149600     1.130819672378    12.000000000000
         C            3.745556233403    -0.469980556580    -1.102197880482    12.000000000000
         O            4.002882129633     2.082631258071    -0.380006916294    15.994914619570
         H            5.391367848944     2.213884075840     0.782014024141     1.007825032230
         H            3.126045427968    -4.159143582947     0.521469924320     1.007825032230
         H            1.802059840772    -1.630347986656     2.272612984367     1.007825032230
         H            5.098263767981    -2.180237502177     2.340930363255     1.007825032230
         H            2.076442405010    -0.541780700717    -2.320995642358     1.007825032230
         H            5.355391242967    -1.076508943533    -2.266331534726     1.007825032230

  Running in c1 symmetry.

  Rotational constants: A =      0.17700  B =      0.03875  C =      0.03530 [cm^-1]
  Rotational constants: A =   5306.35964  B =   1161.63503  C =   1058.20367 [MHz]
  Nuclear repulsion =  250.873993822984488

  Charge       = 0
  Multiplicity = 1
  Electrons    = 52
  Nalpha       = 26
  Nbeta        = 26

  ==> Algorithm <==

  SCF Algorithm Type is DF.
  DIIS enabled.
  MOM disabled.
  Fractional occupation disabled.
  Guess Type is SAD.
  Energy threshold   = 1.00e-08
  Density threshold  = 1.00e-08
  Integral threshold = 1.00e-12

  ==> Primary Basis <==

  Basis Set: AUG-CC-PVTZ
    Blend: AUG-CC-PVTZ
    Number of shells: 192
    Number of basis functions: 552
    Number of Cartesian functions: 630
    Spherical Harmonics?: true
    Max angular momentum: 3

   => Loading Basis Set <=

    Name: (AUG-CC-PVTZ AUX)
    Role: JKFIT
    Keyword: DF_BASIS_SCF
    atoms 1-2, 10-11 entry C          line   162 file /Users/moseschung/miniconda3/envs/psi4/share/psi4/basis/aug-cc-pvtz-jkfit.gbs 
    atoms 3, 12      entry O          line   286 file /Users/moseschung/miniconda3/envs/psi4/share/psi4/basis/aug-cc-pvtz-jkfit.gbs 
    atoms 4-9, 13-18 entry H          line    70 file /Users/moseschung/miniconda3/envs/psi4/share/psi4/basis/aug-cc-pvtz-jkfit.gbs 

  ==> Integral Setup <==

  DFHelper Memory: AOs need 2.608 GiB; user supplied 6.985 GiB. 
  Using in-core AOs.

  ==> MemDFJK: Density-Fitted J/K Matrices <==

    J tasked:                   Yes
    K tasked:                   Yes
    wK tasked:                   No
    OpenMP threads:              10
    Memory [MiB]:              7152
    Algorithm:                 Core
    Schwarz Cutoff:           1E-12
    Mask sparsity (%):       5.8286
    Fitting Condition:        1E-10

   => Auxiliary Basis Set <=

  Basis Set: (AUG-CC-PVTZ AUX)
    Blend: AUG-CC-PVTZ-JKFIT
    Number of shells: 348
    Number of basis functions: 1176
    Number of Cartesian functions: 1446
    Spherical Harmonics?: true
    Max angular momentum: 4

  Minimum eigenvalue in the overlap matrix is 6.6780098145E-06.
  Reciprocal condition number of the overlap matrix is 3.4577214158E-07.
    Using symmetric orthogonalization.

  ==> Pre-Iterations <==

  SCF Guess: Superposition of Atomic Densities via on-the-fly atomic UHF (no occupation information).

   -------------------------
    Irrep   Nso     Nmo    
   -------------------------
     A        552     552 
   -------------------------
    Total     552     552
   -------------------------

  ==> Iterations <==

                           Total Energy        Delta E     RMS |[F,P]|

   @DF-RHF iter SAD:  -307.09957123946816   -3.07100e+02   0.00000e+00 
   @DF-RHF iter   1:  -308.00885584902613   -9.09285e-01   1.30919e-03 DIIS/ADIIS
   @DF-RHF iter   2:  -308.23148575062544   -2.22630e-01   6.78030e-04 DIIS/ADIIS
   @DF-RHF iter   3:  -308.28410468210512   -5.26189e-02   1.18367e-04 DIIS/ADIIS
   @DF-RHF iter   4:  -308.28728393592814   -3.17925e-03   4.40778e-05 DIIS
   @DF-RHF iter   5:  -308.28763102042649   -3.47084e-04   8.85206e-06 DIIS
   @DF-RHF iter   6:  -308.28765202076414   -2.10003e-05   2.05378e-06 DIIS
   @DF-RHF iter   7:  -308.28765352614056   -1.50538e-06   5.87261e-07 DIIS
   @DF-RHF iter   8:  -308.28765363759135   -1.11451e-07   1.82120e-07 DIIS
   @DF-RHF iter   9:  -308.28765364998497   -1.23936e-08   4.67227e-08 DIIS
   @DF-RHF iter  10:  -308.28765365086520   -8.80220e-10   1.00317e-08 DIIS
   @DF-RHF iter  11:  -308.28765365089902   -3.38218e-11   3.57618e-09 DIIS
  Energy and wave function converged.


  ==> Post-Iterations <==

    Orbital Energies [Eh]
    ---------------------

    Doubly Occupied:                                                      

       1A    -20.561635     2A    -20.551570     3A    -11.278259  
       4A    -11.268613     5A    -11.221843     6A    -11.207498  
       7A     -1.368910     8A     -1.358579     9A     -1.020024  
      10A     -1.006645    11A     -0.853995    12A     -0.842415  
      13A     -0.694373    14A     -0.681959    15A     -0.635224  
      16A     -0.624167    17A     -0.609979    18A     -0.607727  
      19A     -0.550424    20A     -0.535238    21A     -0.531992  
      22A     -0.516357    23A     -0.486183    24A     -0.475656  
      25A     -0.448252    26A     -0.437302  

    Virtual:                                                              

      27A      0.027151    28A      0.034655    29A      0.036259  
      30A      0.040903    31A      0.052891    32A      0.054530  
      33A      0.055710    34A      0.059237    35A      0.078835  
      36A      0.081942    37A      0.084369    38A      0.088524  
      39A      0.099309    40A      0.118150    41A      0.120938  
      42A      0.123341    43A      0.125126    44A      0.133241  
      45A      0.142158    46A      0.149929    47A      0.154691  
      48A      0.156991    49A      0.160996    50A      0.164825  
      51A      0.168337    52A      0.177043    53A      0.178682  
      54A      0.183795    55A      0.206172    56A      0.210479  
      57A      0.217872    58A      0.226010    59A      0.233011  
      60A      0.243267    61A      0.246672    62A      0.248139  
      63A      0.257704    64A      0.266455    65A      0.279756  
      66A      0.287231    67A      0.289619    68A      0.296537  
      69A      0.302547    70A      0.309819    71A      0.316337  
      72A      0.321450    73A      0.325171    74A      0.333177  
      75A      0.339291    76A      0.349135    77A      0.349862  
      78A      0.359147    79A      0.362615    80A      0.366405  
      81A      0.373144    82A      0.376049    83A      0.382303  
      84A      0.384109    85A      0.392541    86A      0.396694  
      87A      0.401934    88A      0.406938    89A      0.410941  
      90A      0.415909    91A      0.419613    92A      0.424786  
      93A      0.435304    94A      0.440275    95A      0.443041  
      96A      0.450185    97A      0.455592    98A      0.460359  
      99A      0.466640   100A      0.469626   101A      0.477139  
     102A      0.482729   103A      0.488689   104A      0.493664  
     105A      0.499062   106A      0.503051   107A      0.504336  
     108A      0.516673   109A      0.522157   110A      0.530281  
     111A      0.532350   112A      0.539220   113A      0.553634  
     114A      0.557887   115A      0.561655   116A      0.567029  
     117A      0.573650   118A      0.582722   119A      0.589347  
     120A      0.596018   121A      0.597846   122A      0.605375  
     123A      0.618190   124A      0.624393   125A      0.632950  
     126A      0.640535   127A      0.651350   128A      0.654559  
     129A      0.661726   130A      0.675306   131A      0.682286  
     132A      0.702626   133A      0.714589   134A      0.729618  
     135A      0.734064   136A      0.748018   137A      0.755177  
     138A      0.764740   139A      0.776921   140A      0.782515  
     141A      0.800894   142A      0.801717   143A      0.809523  
     144A      0.820695   145A      0.823988   146A      0.831667  
     147A      0.843038   148A      0.856134   149A      0.859450  
     150A      0.869489   151A      0.873196   152A      0.883891  
     153A      0.885215   154A      0.892451   155A      0.898475  
     156A      0.905882   157A      0.908138   158A      0.913003  
     159A      0.916925   160A      0.935088   161A      0.944781  
     162A      0.956089   163A      0.964048   164A      0.964681  
     165A      0.973380   166A      0.975614   167A      0.987645  
     168A      0.992623   169A      0.997015   170A      1.002109  
     171A      1.014095   172A      1.017841   173A      1.021987  
     174A      1.027114   175A      1.044152   176A      1.050139  
     177A      1.055344   178A      1.062574   179A      1.070442  
     180A      1.076545   181A      1.081200   182A      1.090231  
     183A      1.095942   184A      1.108250   185A      1.109904  
     186A      1.111446   187A      1.114354   188A      1.129797  
     189A      1.131624   190A      1.138751   191A      1.148311  
     192A      1.161583   193A      1.167700   194A      1.170186  
     195A      1.182521   196A      1.189922   197A      1.194371  
     198A      1.207132   199A      1.208115   200A      1.213209  
     201A      1.226577   202A      1.240297   203A      1.251571  
     204A      1.258501   205A      1.268379   206A      1.271303  
     207A      1.283034   208A      1.293180   209A      1.299527  
     210A      1.307528   211A      1.313817   212A      1.317486  
     213A      1.331017   214A      1.338445   215A      1.352936  
     216A      1.371769   217A      1.377412   218A      1.384026  
     219A      1.391300   220A      1.398309   221A      1.401760  
     222A      1.419860   223A      1.425112   224A      1.433077  
     225A      1.440050   226A      1.442960   227A      1.445553  
     228A      1.469160   229A      1.481399   230A      1.491334  
     231A      1.501014   232A      1.517336   233A      1.519512  
     234A      1.532765   235A      1.546187   236A      1.557148  
     237A      1.570308   238A      1.580803   239A      1.584852  
     240A      1.600034   241A      1.603006   242A      1.624493  
     243A      1.632416   244A      1.640048   245A      1.648787  
     246A      1.664014   247A      1.677494   248A      1.679449  
     249A      1.695271   250A      1.696801   251A      1.705574  
     252A      1.714352   253A      1.715516   254A      1.725679  
     255A      1.732222   256A      1.739693   257A      1.744185  
     258A      1.758029   259A      1.767302   260A      1.779222  
     261A      1.781813   262A      1.805587   263A      1.806788  
     264A      1.823649   265A      1.828636   266A      1.845734  
     267A      1.848278   268A      1.858240   269A      1.866896  
     270A      1.868819   271A      1.888338   272A      1.898253  
     273A      1.907315   274A      1.912523   275A      1.918872  
     276A      1.935924   277A      1.948378   278A      1.960409  
     279A      1.976806   280A      1.994665   281A      2.004306  
     282A      2.018874   283A      2.024030   284A      2.028187  
     285A      2.043554   286A      2.059156   287A      2.071432  
     288A      2.079088   289A      2.081492   290A      2.110005  
     291A      2.121551   292A      2.134399   293A      2.147034  
     294A      2.165661   295A      2.176018   296A      2.198960  
     297A      2.202904   298A      2.230211   299A      2.233863  
     300A      2.241517   301A      2.255789   302A      2.274843  
     303A      2.287517   304A      2.304932   305A      2.317865  
     306A      2.325792   307A      2.352086   308A      2.361766  
     309A      2.374354   310A      2.387577   311A      2.402757  
     312A      2.418136   313A      2.432478   314A      2.450747  
     315A      2.468441   316A      2.490257   317A      2.511956  
     318A      2.530640   319A      2.553353   320A      2.586567  
     321A      2.610284   322A      2.630607   323A      2.678946  
     324A      2.688439   325A      2.708463   326A      2.728550  
     327A      2.748941   328A      2.799585   329A      2.830558  
     330A      2.850186   331A      2.871671   332A      2.886813  
     333A      2.903443   334A      2.929682   335A      2.948409  
     336A      2.970420   337A      2.993524   338A      3.010724  
     339A      3.025047   340A      3.029533   341A      3.059473  
     342A      3.081465   343A      3.115245   344A      3.148801  
     345A      3.179860   346A      3.207248   347A      3.215208  
     348A      3.245037   349A      3.348164   350A      3.354613  
     351A      3.420566   352A      3.435562   353A      3.459900  
     354A      3.487987   355A      3.494074   356A      3.503325  
     357A      3.534919   358A      3.543915   359A      3.571950  
     360A      3.597002   361A      3.624316   362A      3.631520  
     363A      3.642314   364A      3.661426   365A      3.676689  
     366A      3.685223   367A      3.707960   368A      3.729486  
     369A      3.731968   370A      3.745807   371A      3.756299  
     372A      3.759547   373A      3.778790   374A      3.791406  
     375A      3.800089   376A      3.812165   377A      3.820800  
     378A      3.852664   379A      3.869706   380A      3.876112  
     381A      3.891653   382A      3.906061   383A      3.930089  
     384A      3.941624   385A      3.951010   386A      3.967862  
     387A      3.979774   388A      3.987139   389A      4.000452  
     390A      4.002051   391A      4.008284   392A      4.023395  
     393A      4.051892   394A      4.054391   395A      4.065012  
     396A      4.072041   397A      4.098822   398A      4.106926  
     399A      4.117536   400A      4.137928   401A      4.158004  
     402A      4.180980   403A      4.189927   404A      4.206050  
     405A      4.211144   406A      4.224727   407A      4.235870  
     408A      4.245455   409A      4.251702   410A      4.277027  
     411A      4.300523   412A      4.316959   413A      4.327451  
     414A      4.352931   415A      4.367458   416A      4.381373  
     417A      4.404525   418A      4.415315   419A      4.430944  
     420A      4.444223   421A      4.488814   422A      4.515231  
     423A      4.523795   424A      4.544655   425A      4.570627  
     426A      4.580459   427A      4.592770   428A      4.607784  
     429A      4.608620   430A      4.617880   431A      4.641207  
     432A      4.658866   433A      4.671903   434A      4.688484  
     435A      4.711066   436A      4.724954   437A      4.733100  
     438A      4.743100   439A      4.781926   440A      4.805577  
     441A      4.828311   442A      4.836331   443A      4.864056  
     444A      4.885360   445A      4.897810   446A      4.903409  
     447A      4.907307   448A      4.925473   449A      4.939158  
     450A      4.948169   451A      4.961870   452A      4.973767  
     453A      5.002035   454A      5.011550   455A      5.040438  
     456A      5.047990   457A      5.065399   458A      5.072283  
     459A      5.096878   460A      5.121754   461A      5.129508  
     462A      5.153789   463A      5.162782   464A      5.187780  
     465A      5.197139   466A      5.220572   467A      5.229921  
     468A      5.248407   469A      5.288600   470A      5.298250  
     471A      5.318175   472A      5.334842   473A      5.376167  
     474A      5.386869   475A      5.415917   476A      5.424077  
     477A      5.447973   478A      5.463292   479A      5.494874  
     480A      5.518616   481A      5.527292   482A      5.547173  
     483A      5.568859   484A      5.581465   485A      5.588608  
     486A      5.596667   487A      5.642334   488A      5.653695  
     489A      5.670817   490A      5.684698   491A      5.701509  
     492A      5.725023   493A      5.743094   494A      5.758690  
     495A      5.798601   496A      5.819139   497A      5.871766  
     498A      5.904775   499A      6.018588   500A      6.038937  
     501A      6.089606   502A      6.111362   503A      6.125111  
     504A      6.163680   505A      6.207840   506A      6.241923  
     507A      6.258269   508A      6.266578   509A      6.269512  
     510A      6.283701   511A      6.313637   512A      6.334776  
     513A      6.442992   514A      6.479265   515A      6.697970  
     516A      6.724771   517A      6.747442   518A      6.796433  
     519A      6.820039   520A      6.873208   521A      6.910396  
     522A      6.940845   523A      6.965603   524A      6.991600  
     525A      7.001592   526A      7.029521   527A      7.144868  
     528A      7.187501   529A      7.356847   530A      7.374537  
     531A      7.391883   532A      7.400998   533A      7.485635  
     534A      7.515132   535A      7.531387   536A      7.554609  
     537A      7.661607   538A      7.666104   539A      7.865682  
     540A      7.879659   541A      7.943529   542A      7.959505  
     543A      8.260827   544A      8.269470   545A      8.614173  
     546A      8.670121   547A     16.301960   548A     16.374670  
     549A     17.843849   550A     18.095191   551A     18.834662  
     552A     19.132582  

    Final Occupation by Irrep:
              A 
    DOCC [    26 ]
    NA   [    26 ]
    NB   [    26 ]

  @DF-RHF Final Energy:  -308.28765365089902

   => Energetics <=

    Nuclear Repulsion Energy =            250.8739938229844881
    One-Electron Energy =                -917.5736531122780661
    Two-Electron Energy =                 358.4120056383945325
    Total Energy =                       -308.2876536508990171

Computation Completed


Properties will be evaluated at   0.000000,   0.000000,   0.000000 [a0]

Properties computed using the SCF density matrix


 Multipole Moments:

 ------------------------------------------------------------------------------------
     Multipole            Electronic (a.u.)      Nuclear  (a.u.)        Total (a.u.)
 ------------------------------------------------------------------------------------

 L = 1.  Multiply by 2.5417464519 to convert [e a0] to [Debye]
 Dipole X            :          0.6866950            0.0000113            0.6867064
 Dipole Y            :          0.1397359            0.0000038            0.1397397
 Dipole Z            :          0.1471359           -0.0000019            0.1471340
 Magnitude           :                                                    0.7160595

 ------------------------------------------------------------------------------------

*** tstop() called on Moses-MBP.lan at Thu Feb 27 17:44:28 2025
Module time:
	user time   =      89.34 seconds =       1.49 minutes
	system time =       7.05 seconds =       0.12 minutes
	total time  =         11 seconds =       0.18 minutes
Total time:
	user time   =     274.58 seconds =       4.58 minutes
	system time =      25.65 seconds =       0.43 minutes
	total time  =         37 seconds =       0.62 minutes

*** tstart() called on Moses-MBP.lan
*** at Thu Feb 27 17:44:28 2025


  //>>>>>>>>>>>>>>>>>>>>>>>>>>>>>>>>>>>//
  //               DFMP2               //
  //<<<<<<<<<<<<<<<<<<<<<<<<<<<<<<<<<<<//

   => Loading Basis Set <=

    Name: (AUG-CC-PVTZ AUX)
    Role: RIFIT
    Keyword: DF_BASIS_MP2
    atoms 1-2, 10-11 entry C          line   148 file /Users/moseschung/miniconda3/envs/psi4/share/psi4/basis/aug-cc-pvtz-ri.gbs 
    atoms 3, 12      entry O          line   264 file /Users/moseschung/miniconda3/envs/psi4/share/psi4/basis/aug-cc-pvtz-ri.gbs 
    atoms 4-9, 13-18 entry H          line    30 file /Users/moseschung/miniconda3/envs/psi4/share/psi4/basis/aug-cc-pvtz-ri.gbs 

	 --------------------------------------------------------
	                          DF-MP2                         
	      2nd-Order Density-Fitted Moller-Plesset Theory     
	              RMP2 Wavefunction,  10 Threads             
	                                                         
	        Rob Parrish, Justin Turney, Andy Simmonett,      
	           Ed Hohenstein, and C. David Sherrill          
	 --------------------------------------------------------

   => Auxiliary Basis Set <=

  Basis Set: (AUG-CC-PVTZ AUX)
    Blend: AUG-CC-PVTZ-RI
    Number of shells: 336
    Number of basis functions: 1188
    Number of Cartesian functions: 1476
    Spherical Harmonics?: true
    Max angular momentum: 4

	 --------------------------------------------------------
	                 NBF =   552, NAUX =  1188
	 --------------------------------------------------------
	   CLASS    FOCC     OCC    AOCC    AVIR     VIR    FVIR
	   PAIRS       0      26      26     526     526       0
	 --------------------------------------------------------

	-----------------------------------------------------------
	 ==================> DF-MP2 Energies <==================== 
	-----------------------------------------------------------
	 Reference Energy          =    -308.2876536508990171 [Eh]
	 Singles Energy            =      -0.0000000000000000 [Eh]
	 Same-Spin Energy          =      -0.2993562756866328 [Eh]
	 Opposite-Spin Energy      =      -1.0399996715615978 [Eh]
	 Correlation Energy        =      -1.3393559472482306 [Eh]
	 Total Energy              =    -309.6270095981472537 [Eh]
	-----------------------------------------------------------
	 ================> DF-SCS-MP2 Energies <================== 
	-----------------------------------------------------------
	 SCS Same-Spin Scale       =       0.3333333333333333 [-]
	 SCS Opposite-Spin Scale   =       1.2000000000000000 [-]
	 SCS Same-Spin Energy      =      -0.0997854252288776 [Eh]
	 SCS Opposite-Spin Energy  =      -1.2479996058739173 [Eh]
	 SCS Correlation Energy    =      -1.3477850311027950 [Eh]
	 SCS Total Energy          =    -309.6354386820017908 [Eh]
	-----------------------------------------------------------


*** tstop() called on Moses-MBP.lan at Thu Feb 27 17:44:33 2025
Module time:
	user time   =      32.85 seconds =       0.55 minutes
	system time =       2.66 seconds =       0.04 minutes
	total time  =          5 seconds =       0.08 minutes
Total time:
	user time   =     307.43 seconds =       5.12 minutes
	system time =      28.31 seconds =       0.47 minutes
	total time  =         42 seconds =       0.70 minutes

    Psi4 stopped on: Thursday, 27 February 2025 05:44PM
    Psi4 wall time for execution: 0:00:16.30


  //>>>>>>>>>>>>>>>>>>>>>>>>>>>>>>>>>>>//
  //          ManyBody Results         //
  //<<<<<<<<<<<<<<<<<<<<<<<<<<<<<<<<<<<//


   ==> N-Body: Counterpoise Corrected (CP) energies <==

        n-Body     Total Energy            Interaction Energy                          N-body Contribution to Interaction Energy
                   [Eh]                    [Eh]                  [kcal/mol]            [Eh]                  [kcal/mol]
             1  N/A                         0.000000000000        0.000000000000        0.000000000000        0.000000000000
  FULL/RTN   2  N/A                        -0.003188460330       -2.000789063639       -0.003188460330       -2.000789063639


    Psi4 stopped on: Thursday, 27 February 2025 05:44PM
    Psi4 wall time for execution: 0:00:44.31

*** Psi4 exiting successfully. Buy a developer a beer!
