
    -----------------------------------------------------------------------
          Psi4: An Open-Source Ab Initio Electronic Structure Package
                               Psi4 1.9.1 release

                         Git: Rev {} zzzzzzz 


    D. G. A. Smith, L. A. Burns, A. C. Simmonett, R. M. Parrish,
    M. C. Schieber, R. Galvelis, P. Kraus, H. Kruse, R. Di Remigio,
    A. Alenaizan, A. M. James, S. Lehtola, J. P. Misiewicz, M. Scheurer,
    R. A. Shaw, J. B. Schriber, Y. Xie, Z. L. Glick, D. A. Sirianni,
    J. S. O'Brien, J. M. Waldrop, A. Kumar, E. G. Hohenstein,
    B. P. Pritchard, B. R. Brooks, H. F. Schaefer III, A. Yu. Sokolov,
    K. Patkowski, A. E. DePrince III, U. Bozkaya, R. A. King,
    F. A. Evangelista, J. M. Turney, T. D. Crawford, C. D. Sherrill,
    J. Chem. Phys. 152(18) 184108 (2020). https://doi.org/10.1063/5.0006002

                            Additional Code Authors
    E. T. Seidl, C. L. Janssen, E. F. Valeev, M. L. Leininger,
    J. F. Gonthier, R. M. Richard, H. R. McAlexander, M. Saitow, X. Wang,
    P. Verma, M. H. Lechner, A. Jiang, S. Behnle, A. G. Heide,
    M. F. Herbst, and D. L. Poole

             Previous Authors, Complete List of Code Contributors,
                       and Citations for Specific Modules
    https://github.com/psi4/psi4/blob/master/codemeta.json
    https://github.com/psi4/psi4/graphs/contributors
    http://psicode.org/psi4manual/master/introduction.html#citing-psifour

    -----------------------------------------------------------------------


    Psi4 started on: Thursday, 27 February 2025 05:50PM

    Process ID: 32292
    Host:       Moses-MBP.lan
    PSIDATADIR: /Users/moseschung/miniconda3/envs/psi4/share/psi4
    Memory:     500.0 MiB
    Threads:    10
    
  ==> Input File <==

--------------------------------------------------------------------------
MEMORY 10 GB

molecule dimer {
0 1
C   -1.963748   1.265020   0.028353
C   -2.365107  -0.173974   0.233460
O   -1.621145  -1.064613  -0.568591
H   -1.732855  -0.809637  -1.488026
H   -2.544648   1.931845   0.668723
H   -2.132959   1.572447  -1.008276
H   -0.904374   1.406432   0.254396
H   -3.443328  -0.299177   0.059353
H   -2.177816  -0.477973   1.267136
--
0 1
C    1.310325  -0.415454   1.080624
C    1.739443  -0.185319  -0.339788
O    2.987505   0.473444  -0.322679
H    3.279455   0.612922  -1.225116
H    0.352608  -0.937769   1.101386
H    1.209457   0.535502   1.609213
H    2.051543  -1.016275   1.610802
H    0.982179   0.415920  -0.865441
H    1.804386  -1.146516  -0.869892

units ang
no_reorient
no_com
symmetry c1
}

set {
basis        aug-cc-pVTZ
scf_type     df
}

energy("mp2", bsse_type="cp")
--------------------------------------------------------------------------

  Memory set to   9.313 GiB by Python driver.

Scratch directory: /tmp/

  //>>>>>>>>>>>>>>>>>>>>>>>>>>>>>>>>>>>>>//
  // ManyBody Setup: N-Body Levels [1, 2]//
  //<<<<<<<<<<<<<<<<<<<<<<<<<<<<<<<<<<<<<//

        Number of 1-body computations:     2
        Number of 2-body computations:     1

    -----------------------------------------------------------------------
          Psi4: An Open-Source Ab Initio Electronic Structure Package
                               Psi4 1.9.1 release

                         Git: Rev {} zzzzzzz 


    D. G. A. Smith, L. A. Burns, A. C. Simmonett, R. M. Parrish,
    M. C. Schieber, R. Galvelis, P. Kraus, H. Kruse, R. Di Remigio,
    A. Alenaizan, A. M. James, S. Lehtola, J. P. Misiewicz, M. Scheurer,
    R. A. Shaw, J. B. Schriber, Y. Xie, Z. L. Glick, D. A. Sirianni,
    J. S. O'Brien, J. M. Waldrop, A. Kumar, E. G. Hohenstein,
    B. P. Pritchard, B. R. Brooks, H. F. Schaefer III, A. Yu. Sokolov,
    K. Patkowski, A. E. DePrince III, U. Bozkaya, R. A. King,
    F. A. Evangelista, J. M. Turney, T. D. Crawford, C. D. Sherrill,
    J. Chem. Phys. 152(18) 184108 (2020). https://doi.org/10.1063/5.0006002

                            Additional Code Authors
    E. T. Seidl, C. L. Janssen, E. F. Valeev, M. L. Leininger,
    J. F. Gonthier, R. M. Richard, H. R. McAlexander, M. Saitow, X. Wang,
    P. Verma, M. H. Lechner, A. Jiang, S. Behnle, A. G. Heide,
    M. F. Herbst, and D. L. Poole

             Previous Authors, Complete List of Code Contributors,
                       and Citations for Specific Modules
    https://github.com/psi4/psi4/blob/master/codemeta.json
    https://github.com/psi4/psi4/graphs/contributors
    http://psicode.org/psi4manual/master/introduction.html#citing-psifour

    -----------------------------------------------------------------------


    Psi4 started on: Thursday, 27 February 2025 05:50PM

    Process ID: 32292
    Host:       Moses-MBP.lan
    PSIDATADIR: /Users/moseschung/miniconda3/envs/psi4/share/psi4
    Memory:     9.3 GiB
    Threads:    10
    
  ==> Input QCSchema <==

--------------------------------------------------------------------------
{'driver': 'energy',
 'extras': {'psiapi': True, 'wfn_qcvars_only': True},
 'id': None,
 'keywords': {'SCF_TYPE': 'DF', 'function_kwargs': {}},
 'model': {'basis': 'aug-cc-pvtz', 'method': 'mp2'},
 'molecule': {'atom_labels': ['', '', '', '', '', '', '', '', '', '', '', '', '', '', '', '', '', ''],
              'atomic_numbers': [6, 6, 8, 1, 1, 1, 1, 1, 1, 6, 6, 8, 1, 1, 1, 1, 1, 1],
              'extras': {},
              'fix_com': True,
              'fix_orientation': True,
              'fix_symmetry': 'c1',
              'fragment_charges': [0.0, 0.0],
              'fragment_multiplicities': [1, 1],
              'fragments': [[0, 1, 2, 3, 4, 5, 6, 7, 8], [9, 10, 11, 12, 13, 14, 15, 16, 17]],
              'geometry': [-3.710945899415559, 2.390541343226662, 0.0535794048351058, -4.469404487403188,
                           -0.3287632129504002, 0.44117546124938456, -3.063520059655331, -2.011826999602035,
                           -1.0744812674001916, -3.274621365130225, -1.5299921910372998, -2.8119616075605105,
                           -4.808687805694012, 3.650657966835078, 1.2637033237945352, -4.030708346830404,
                           2.9714941767977847, -1.905365498872117, -1.7090191749847978, 2.657771294079904,
                           0.4807387674119697, -6.506946880120453, -0.5653625930360967, 0.11216091472429848,
                           -4.1154757916400655, -0.9032380653634544, 2.394540003708131, 2.4761553853405287,
                           -0.7850942777259565, 2.04208340459674, 3.287070880844741, -0.3502021558437193,
                           -0.6421062607170644, 5.645566248435889, 0.8946794957412559, -0.6097749364366065,
                           6.197271790763302, 1.158254716267863, -2.315133711916393, 0.6663325496454339,
                           -1.772126578944462, 2.0813178984134955, 2.2855424905178485, 1.011952119634918,
                           3.040971847526368, 3.876854404600129, -1.9204814181496543, 3.0439746223397206,
                           1.8560493161760443, 0.7859748901004199, -1.6354464677423484, 3.409795364610349,
                           -2.1666012384554074, -1.6438576387267607],
              'mass_numbers': [12, 12, 16, 1, 1, 1, 1, 1, 1, 12, 12, 16, 1, 1, 1, 1, 1, 1],
              'masses': [12.0, 12.0, 15.99491461957, 1.00782503223, 1.00782503223, 1.00782503223, 1.00782503223,
                         1.00782503223, 1.00782503223, 12.0, 12.0, 15.99491461957, 1.00782503223, 1.00782503223,
                         1.00782503223, 1.00782503223, 1.00782503223, 1.00782503223],
              'molecular_charge': 0.0,
              'molecular_multiplicity': 1,
              'name': 'dimer',
              'provenance': {'creator': 'QCElemental',
                             'routine': 'qcelemental.molparse.from_string',
                             'version': '0.29.0'},
              'real': [False, False, False, False, False, False, False, False, False, True, True, True, True, True,
                       True, True, True, True],
              'schema_name': 'qcschema_molecule',
              'schema_version': 2,
              'symbols': ['C', 'C', 'O', 'H', 'H', 'H', 'H', 'H', 'H', 'C', 'C', 'O', 'H', 'H', 'H', 'H', 'H', 'H'],
              'validated': True},
 'protocols': {'stdout': True},
 'provenance': {'creator': 'QCElemental', 'routine': 'qcelemental.models.results', 'version': '0.29.0'},
 'schema_name': 'qcschema_input',
 'schema_version': 1}
--------------------------------------------------------------------------

Scratch directory: /tmp/
   => Libint2 <=

    Primary   basis highest AM E, G, H:  6, 6, 3
    Auxiliary basis highest AM E, G, H:  7, 7, 4
    Onebody   basis highest AM E, G, H:  -, -, -
    Solid Harmonics ordering:            Gaussian

*** tstart() called on Moses-MBP.lan
*** at Thu Feb 27 17:50:33 2025

   => Loading Basis Set <=

    Name: AUG-CC-PVTZ
    Role: ORBITAL
    Keyword: BASIS
    atoms 1-2, 10-11 entry C          line   239 file /Users/moseschung/miniconda3/envs/psi4/share/psi4/basis/aug-cc-pvtz.gbs 
    atoms 3, 12      entry O          line   331 file /Users/moseschung/miniconda3/envs/psi4/share/psi4/basis/aug-cc-pvtz.gbs 
    atoms 4-9, 13-18 entry H          line    40 file /Users/moseschung/miniconda3/envs/psi4/share/psi4/basis/aug-cc-pvtz.gbs 


         ---------------------------------------------------------
                                   SCF
               by Justin Turney, Rob Parrish, Andy Simmonett
                          and Daniel G. A. Smith
                              RHF Reference
                       10 Threads,   9536 MiB Core
         ---------------------------------------------------------

  ==> Geometry <==

    Molecular point group: c1
    Full point group: C1

    Geometry (in Bohr), charge = 0, multiplicity = 1:

       Center              X                  Y                   Z               Mass       
    ------------   -----------------  -----------------  -----------------  -----------------
      Gh(C)          -3.710945899416     2.390541343227     0.053579404835    12.000000000000
      Gh(C)          -4.469404487403    -0.328763212950     0.441175461249    12.000000000000
      Gh(O)          -3.063520059655    -2.011826999602    -1.074481267400    15.994914619570
      Gh(H)          -3.274621365130    -1.529992191037    -2.811961607561     1.007825032230
      Gh(H)          -4.808687805694     3.650657966835     1.263703323795     1.007825032230
      Gh(H)          -4.030708346830     2.971494176798    -1.905365498872     1.007825032230
      Gh(H)          -1.709019174985     2.657771294080     0.480738767412     1.007825032230
      Gh(H)          -6.506946880120    -0.565362593036     0.112160914724     1.007825032230
      Gh(H)          -4.115475791640    -0.903238065363     2.394540003708     1.007825032230
         C            2.476155385341    -0.785094277726     2.042083404597    12.000000000000
         C            3.287070880845    -0.350202155844    -0.642106260717    12.000000000000
         O            5.645566248436     0.894679495741    -0.609774936437    15.994914619570
         H            6.197271790763     1.158254716268    -2.315133711916     1.007825032230
         H            0.666332549645    -1.772126578944     2.081317898413     1.007825032230
         H            2.285542490518     1.011952119635     3.040971847526     1.007825032230
         H            3.876854404600    -1.920481418150     3.043974622340     1.007825032230
         H            1.856049316176     0.785974890100    -1.635446467742     1.007825032230
         H            3.409795364610    -2.166601238455    -1.643857638727     1.007825032230

  Running in c1 symmetry.

  Rotational constants: A =      0.17802  B =      0.03783  C =      0.03626 [cm^-1]
  Rotational constants: A =   5336.84500  B =   1134.21342  C =   1087.07291 [MHz]
  Nuclear repulsion =   82.259509953069951

  Charge       = 0
  Multiplicity = 1
  Electrons    = 26
  Nalpha       = 13
  Nbeta        = 13

  ==> Algorithm <==

  SCF Algorithm Type is DF.
  DIIS enabled.
  MOM disabled.
  Fractional occupation disabled.
  Guess Type is SAD.
  Energy threshold   = 1.00e-08
  Density threshold  = 1.00e-08
  Integral threshold = 1.00e-12

  ==> Primary Basis <==

  Basis Set: AUG-CC-PVTZ
    Blend: AUG-CC-PVTZ
    Number of shells: 192
    Number of basis functions: 552
    Number of Cartesian functions: 630
    Spherical Harmonics?: true
    Max angular momentum: 3

   => Loading Basis Set <=

    Name: (AUG-CC-PVTZ AUX)
    Role: JKFIT
    Keyword: DF_BASIS_SCF
    atoms 1-2, 10-11 entry C          line   162 file /Users/moseschung/miniconda3/envs/psi4/share/psi4/basis/aug-cc-pvtz-jkfit.gbs 
    atoms 3, 12      entry O          line   286 file /Users/moseschung/miniconda3/envs/psi4/share/psi4/basis/aug-cc-pvtz-jkfit.gbs 
    atoms 4-9, 13-18 entry H          line    70 file /Users/moseschung/miniconda3/envs/psi4/share/psi4/basis/aug-cc-pvtz-jkfit.gbs 

  ==> Integral Setup <==

  DFHelper Memory: AOs need 2.607 GiB; user supplied 6.985 GiB. 
  Using in-core AOs.

  ==> MemDFJK: Density-Fitted J/K Matrices <==

    J tasked:                   Yes
    K tasked:                   Yes
    wK tasked:                   No
    OpenMP threads:              10
    Memory [MiB]:              7152
    Algorithm:                 Core
    Schwarz Cutoff:           1E-12
    Mask sparsity (%):       5.8936
    Fitting Condition:        1E-10

   => Auxiliary Basis Set <=

  Basis Set: (AUG-CC-PVTZ AUX)
    Blend: AUG-CC-PVTZ-JKFIT
    Number of shells: 348
    Number of basis functions: 1176
    Number of Cartesian functions: 1446
    Spherical Harmonics?: true
    Max angular momentum: 4

  Minimum eigenvalue in the overlap matrix is 7.6082989693E-06.
  Reciprocal condition number of the overlap matrix is 4.0173628616E-07.
    Using symmetric orthogonalization.

  ==> Pre-Iterations <==

  SCF Guess: Superposition of Atomic Densities via on-the-fly atomic UHF (no occupation information).

   -------------------------
    Irrep   Nso     Nmo    
   -------------------------
     A        552     552 
   -------------------------
    Total     552     552
   -------------------------

  ==> Iterations <==

                           Total Energy        Delta E     RMS |[F,P]|

   @DF-RHF iter SAD:  -153.45210823493326   -1.53452e+02   0.00000e+00 
   @DF-RHF iter   1:  -153.99863555818547   -5.46527e-01   9.60729e-04 ADIIS/DIIS
   @DF-RHF iter   2:  -154.11085354020719   -1.12218e-01   5.34117e-04 ADIIS/DIIS
   @DF-RHF iter   3:  -154.14377194353273   -3.29184e-02   8.44129e-05 DIIS
   @DF-RHF iter   4:  -154.14536784119667   -1.59590e-03   3.23623e-05 DIIS
   @DF-RHF iter   5:  -154.14555181103549   -1.83970e-04   5.75868e-06 DIIS
   @DF-RHF iter   6:  -154.14556138709844   -9.57606e-06   1.27506e-06 DIIS
   @DF-RHF iter   7:  -154.14556194078068   -5.53682e-07   3.91516e-07 DIIS
   @DF-RHF iter   8:  -154.14556198437759   -4.35969e-08   1.04767e-07 DIIS
   @DF-RHF iter   9:  -154.14556198853839   -4.16080e-09   2.51868e-08 DIIS
   @DF-RHF iter  10:  -154.14556198879916   -2.60769e-10   4.78066e-09 DIIS
  Energy and wave function converged.


  ==> Post-Iterations <==

    Orbital Energies [Eh]
    ---------------------

    Doubly Occupied:                                                      

       1A    -20.556125     2A    -11.273585     3A    -11.210850  
       4A     -1.362119     5A     -1.014724     6A     -0.832604  
       7A     -0.703910     8A     -0.645209     9A     -0.574741  
      10A     -0.533983    11A     -0.524057    12A     -0.489134  
      13A     -0.439878  

    Virtual:                                                              

      14A      0.021039    15A      0.032069    16A      0.036306  
      17A      0.037897    18A      0.049230    19A      0.053624  
      20A      0.055444    21A      0.059883    22A      0.070073  
      23A      0.076286    24A      0.079673    25A      0.085626  
      26A      0.094883    27A      0.103911    28A      0.113225  
      29A      0.116702    30A      0.120359    31A      0.127289  
      32A      0.130605    33A      0.139837    34A      0.144849  
      35A      0.147698    36A      0.155902    37A      0.160391  
      38A      0.166155    39A      0.168552    40A      0.177491  
      41A      0.186776    42A      0.191612    43A      0.203792  
      44A      0.205268    45A      0.212199    46A      0.218536  
      47A      0.233540    48A      0.236576    49A      0.253610  
      50A      0.260173    51A      0.268477    52A      0.277169  
      53A      0.280581    54A      0.290556    55A      0.292966  
      56A      0.297390    57A      0.300970    58A      0.303677  
      59A      0.311634    60A      0.323417    61A      0.331945  
      62A      0.333206    63A      0.341413    64A      0.346244  
      65A      0.348628    66A      0.353461    67A      0.358688  
      68A      0.361153    69A      0.371136    70A      0.374902  
      71A      0.378925    72A      0.385934    73A      0.390143  
      74A      0.399078    75A      0.401921    76A      0.407316  
      77A      0.411588    78A      0.422372    79A      0.424259  
      80A      0.432523    81A      0.435878    82A      0.440537  
      83A      0.447077    84A      0.455399    85A      0.460909  
      86A      0.467701    87A      0.470716    88A      0.476535  
      89A      0.482554    90A      0.486773    91A      0.492588  
      92A      0.501617    93A      0.508715    94A      0.510433  
      95A      0.516754    96A      0.521196    97A      0.534532  
      98A      0.538614    99A      0.547267   100A      0.555005  
     101A      0.557110   102A      0.557319   103A      0.566819  
     104A      0.575040   105A      0.583670   106A      0.595727  
     107A      0.599118   108A      0.616391   109A      0.617081  
     110A      0.629533   111A      0.634250   112A      0.642863  
     113A      0.643516   114A      0.651118   115A      0.657898  
     116A      0.664379   117A      0.675627   118A      0.683480  
     119A      0.694029   120A      0.696987   121A      0.713506  
     122A      0.720359   123A      0.727970   124A      0.749885  
     125A      0.751923   126A      0.763128   127A      0.768322  
     128A      0.779848   129A      0.784211   130A      0.806566  
     131A      0.817750   132A      0.818709   133A      0.820091  
     134A      0.842933   135A      0.850646   136A      0.858892  
     137A      0.877489   138A      0.880201   139A      0.885133  
     140A      0.897257   141A      0.900568   142A      0.908516  
     143A      0.919287   144A      0.929327   145A      0.935448  
     146A      0.944785   147A      0.963689   148A      0.970904  
     149A      0.978213   150A      0.984334   151A      0.990763  
     152A      0.992064   153A      0.999656   154A      1.007481  
     155A      1.016487   156A      1.026426   157A      1.034030  
     158A      1.040300   159A      1.047463   160A      1.053357  
     161A      1.058941   162A      1.067371   163A      1.071816  
     164A      1.079502   165A      1.086070   166A      1.093178  
     167A      1.096746   168A      1.104539   169A      1.109240  
     170A      1.118737   171A      1.123765   172A      1.129386  
     173A      1.137752   174A      1.144465   175A      1.153302  
     176A      1.157937   177A      1.170845   178A      1.173672  
     179A      1.182783   180A      1.185216   181A      1.188052  
     182A      1.202495   183A      1.206889   184A      1.214843  
     185A      1.215587   186A      1.221982   187A      1.224789  
     188A      1.238751   189A      1.252695   190A      1.255815  
     191A      1.267282   192A      1.274539   193A      1.287378  
     194A      1.290335   195A      1.300542   196A      1.304772  
     197A      1.324853   198A      1.329993   199A      1.332075  
     200A      1.350154   201A      1.358985   202A      1.365684  
     203A      1.372720   204A      1.383837   205A      1.385731  
     206A      1.393409   207A      1.402859   208A      1.410288  
     209A      1.420028   210A      1.421208   211A      1.437936  
     212A      1.449161   213A      1.457430   214A      1.470948  
     215A      1.474674   216A      1.488492   217A      1.490609  
     218A      1.509282   219A      1.510952   220A      1.528963  
     221A      1.538096   222A      1.545089   223A      1.551280  
     224A      1.556123   225A      1.571691   226A      1.581515  
     227A      1.587559   228A      1.600085   229A      1.607977  
     230A      1.630348   231A      1.642509   232A      1.652248  
     233A      1.667494   234A      1.683141   235A      1.689685  
     236A      1.695470   237A      1.700682   238A      1.706346  
     239A      1.721708   240A      1.727288   241A      1.731165  
     242A      1.758447   243A      1.767648   244A      1.774470  
     245A      1.783785   246A      1.793365   247A      1.801664  
     248A      1.814571   249A      1.823520   250A      1.833911  
     251A      1.842272   252A      1.851165   253A      1.859903  
     254A      1.868645   255A      1.871921   256A      1.898897  
     257A      1.913305   258A      1.923791   259A      1.938652  
     260A      1.968938   261A      1.971764   262A      1.984062  
     263A      1.997869   264A      2.000612   265A      2.013978  
     266A      2.026115   267A      2.030935   268A      2.047111  
     269A      2.057651   270A      2.067322   271A      2.087285  
     272A      2.090806   273A      2.099953   274A      2.110970  
     275A      2.128544   276A      2.136014   277A      2.157229  
     278A      2.162188   279A      2.177956   280A      2.188719  
     281A      2.194885   282A      2.211570   283A      2.221027  
     284A      2.228145   285A      2.256807   286A      2.257815  
     287A      2.267245   288A      2.283452   289A      2.304421  
     290A      2.307479   291A      2.323573   292A      2.345300  
     293A      2.353181   294A      2.363555   295A      2.377372  
     296A      2.420083   297A      2.445036   298A      2.447261  
     299A      2.468825   300A      2.495176   301A      2.502053  
     302A      2.515357   303A      2.533143   304A      2.581309  
     305A      2.588106   306A      2.597809   307A      2.612220  
     308A      2.625073   309A      2.651584   310A      2.661156  
     311A      2.694112   312A      2.716427   313A      2.723091  
     314A      2.746500   315A      2.767280   316A      2.800399  
     317A      2.818745   318A      2.825025   319A      2.851583  
     320A      2.867883   321A      2.894981   322A      2.913760  
     323A      2.935156   324A      2.952676   325A      2.958408  
     326A      2.995261   327A      3.008635   328A      3.022367  
     329A      3.043469   330A      3.088903   331A      3.120177  
     332A      3.123906   333A      3.144720   334A      3.190711  
     335A      3.220878   336A      3.252959   337A      3.314169  
     338A      3.332771   339A      3.364478   340A      3.386646  
     341A      3.406551   342A      3.475744   343A      3.496343  
     344A      3.509785   345A      3.511467   346A      3.529519  
     347A      3.547734   348A      3.612938   349A      3.633184  
     350A      3.645056   351A      3.648320   352A      3.695685  
     353A      3.710431   354A      3.714783   355A      3.776564  
     356A      3.801329   357A      3.826285   358A      3.855684  
     359A      3.859005   360A      3.867146   361A      3.904244  
     362A      3.915134   363A      3.936541   364A      3.953412  
     365A      3.976957   366A      3.988581   367A      4.014663  
     368A      4.028174   369A      4.046520   370A      4.085959  
     371A      4.087366   372A      4.108675   373A      4.135278  
     374A      4.150654   375A      4.155431   376A      4.161977  
     377A      4.171583   378A      4.185024   379A      4.199088  
     380A      4.226822   381A      4.240046   382A      4.255622  
     383A      4.268157   384A      4.285761   385A      4.304931  
     386A      4.313077   387A      4.326539   388A      4.339728  
     389A      4.352209   390A      4.384529   391A      4.414785  
     392A      4.416174   393A      4.447118   394A      4.484543  
     395A      4.496211   396A      4.508652   397A      4.518469  
     398A      4.535072   399A      4.546413   400A      4.569853  
     401A      4.586244   402A      4.599667   403A      4.604575  
     404A      4.610405   405A      4.631249   406A      4.647139  
     407A      4.653558   408A      4.663564   409A      4.685849  
     410A      4.705501   411A      4.731722   412A      4.739426  
     413A      4.746350   414A      4.763692   415A      4.775848  
     416A      4.800658   417A      4.830318   418A      4.849198  
     419A      4.865259   420A      4.873915   421A      4.896057  
     422A      4.915161   423A      4.925347   424A      4.943713  
     425A      4.950609   426A      4.973314   427A      4.994056  
     428A      5.018347   429A      5.039527   430A      5.042045  
     431A      5.043188   432A      5.074486   433A      5.081929  
     434A      5.089394   435A      5.123466   436A      5.128822  
     437A      5.153729   438A      5.164397   439A      5.184759  
     440A      5.204596   441A      5.214785   442A      5.236826  
     443A      5.250057   444A      5.268124   445A      5.287636  
     446A      5.326462   447A      5.352115   448A      5.364446  
     449A      5.369920   450A      5.390063   451A      5.408593  
     452A      5.420480   453A      5.440878   454A      5.443380  
     455A      5.473372   456A      5.519133   457A      5.531828  
     458A      5.551744   459A      5.560387   460A      5.570702  
     461A      5.594145   462A      5.599703   463A      5.603308  
     464A      5.624970   465A      5.651645   466A      5.660993  
     467A      5.669430   468A      5.699215   469A      5.748955  
     470A      5.769597   471A      5.773968   472A      5.780767  
     473A      5.802785   474A      5.818622   475A      5.845446  
     476A      5.866065   477A      5.910870   478A      5.963984  
     479A      6.013362   480A      6.032968   481A      6.064460  
     482A      6.085232   483A      6.116575   484A      6.132230  
     485A      6.165055   486A      6.191938   487A      6.214897  
     488A      6.235548   489A      6.266989   490A      6.294678  
     491A      6.309832   492A      6.364937   493A      6.436074  
     494A      6.486889   495A      6.524015   496A      6.719535  
     497A      6.737366   498A      6.776315   499A      6.826029  
     500A      6.855532   501A      6.912130   502A      6.940236  
     503A      6.950066   504A      6.987366   505A      7.035107  
     506A      7.103414   507A      7.115070   508A      7.149559  
     509A      7.206073   510A      7.337300   511A      7.367677  
     512A      7.381511   513A      7.519289   514A      7.538657  
     515A      7.614786   516A      7.785043   517A      7.795368  
     518A      7.842622   519A      7.853776   520A      7.876277  
     521A      7.910237   522A      7.933331   523A      7.957811  
     524A      8.033515   525A      8.141544   526A      8.181465  
     527A      8.254087   528A      8.288944   529A      8.309529  
     530A      8.372530   531A      8.391669   532A      8.582080  
     533A      8.602405   534A      8.927193   535A      9.002967  
     536A     10.019656   537A     10.127884   538A     10.244339  
     539A     10.397699   540A     10.682789   541A     10.728339  
     542A     11.068334   543A     12.052475   544A     12.505500  
     545A     13.307224   546A     14.137106   547A     15.931395  
     548A     18.184770   549A     18.617833   550A     52.830065  
     551A     54.528929   552A     67.343142  

    Final Occupation by Irrep:
              A 
    DOCC [    13 ]
    NA   [    13 ]
    NB   [    13 ]

  @DF-RHF Final Energy:  -154.14556198879916

   => Energetics <=

    Nuclear Repulsion Energy =             82.2595099530699514
    One-Electron Energy =                -372.4883029407770891
    Two-Electron Energy =                 136.0832309989079931
    Total Energy =                       -154.1455619887991588

Computation Completed


Properties will be evaluated at   0.000000,   0.000000,   0.000000 [a0]

Properties computed using the SCF density matrix


 Multipole Moments:

 ------------------------------------------------------------------------------------
     Multipole            Electronic (a.u.)      Nuclear  (a.u.)        Total (a.u.)
 ------------------------------------------------------------------------------------

 L = 1.  Multiply by 2.5417464519 to convert [e a0] to [Debye]
 Dipole X            :        -98.3722640           98.0357335           -0.3365305
 Dipole Y            :          2.3687863           -2.5573701           -0.1885839
 Dipole Z            :         -6.6277675            6.0934899           -0.5342776
 Magnitude           :                                                    0.6589910

 ------------------------------------------------------------------------------------

*** tstop() called on Moses-MBP.lan at Thu Feb 27 17:50:42 2025
Module time:
	user time   =      71.74 seconds =       1.20 minutes
	system time =       6.34 seconds =       0.11 minutes
	total time  =          9 seconds =       0.15 minutes
Total time:
	user time   =      71.74 seconds =       1.20 minutes
	system time =       6.34 seconds =       0.11 minutes
	total time  =          9 seconds =       0.15 minutes

*** tstart() called on Moses-MBP.lan
*** at Thu Feb 27 17:50:42 2025


  //>>>>>>>>>>>>>>>>>>>>>>>>>>>>>>>>>>>//
  //               DFMP2               //
  //<<<<<<<<<<<<<<<<<<<<<<<<<<<<<<<<<<<//

   => Loading Basis Set <=

    Name: (AUG-CC-PVTZ AUX)
    Role: RIFIT
    Keyword: DF_BASIS_MP2
    atoms 1-2, 10-11 entry C          line   148 file /Users/moseschung/miniconda3/envs/psi4/share/psi4/basis/aug-cc-pvtz-ri.gbs 
    atoms 3, 12      entry O          line   264 file /Users/moseschung/miniconda3/envs/psi4/share/psi4/basis/aug-cc-pvtz-ri.gbs 
    atoms 4-9, 13-18 entry H          line    30 file /Users/moseschung/miniconda3/envs/psi4/share/psi4/basis/aug-cc-pvtz-ri.gbs 

	 --------------------------------------------------------
	                          DF-MP2                         
	      2nd-Order Density-Fitted Moller-Plesset Theory     
	              RMP2 Wavefunction,  10 Threads             
	                                                         
	        Rob Parrish, Justin Turney, Andy Simmonett,      
	           Ed Hohenstein, and C. David Sherrill          
	 --------------------------------------------------------

   => Auxiliary Basis Set <=

  Basis Set: (AUG-CC-PVTZ AUX)
    Blend: AUG-CC-PVTZ-RI
    Number of shells: 336
    Number of basis functions: 1188
    Number of Cartesian functions: 1476
    Spherical Harmonics?: true
    Max angular momentum: 4

	 --------------------------------------------------------
	                 NBF =   552, NAUX =  1188
	 --------------------------------------------------------
	   CLASS    FOCC     OCC    AOCC    AVIR     VIR    FVIR
	   PAIRS       0      13      13     539     539       0
	 --------------------------------------------------------

	-----------------------------------------------------------
	 ==================> DF-MP2 Energies <==================== 
	-----------------------------------------------------------
	 Reference Energy          =    -154.1455619887991588 [Eh]
	 Singles Energy            =      -0.0000000000000000 [Eh]
	 Same-Spin Energy          =      -0.1481319615893958 [Eh]
	 Opposite-Spin Energy      =      -0.5181548042772328 [Eh]
	 Correlation Energy        =      -0.6662867658666286 [Eh]
	 Total Energy              =    -154.8118487546657889 [Eh]
	-----------------------------------------------------------
	 ================> DF-SCS-MP2 Energies <================== 
	-----------------------------------------------------------
	 SCS Same-Spin Scale       =       0.3333333333333333 [-]
	 SCS Opposite-Spin Scale   =       1.2000000000000000 [-]
	 SCS Same-Spin Energy      =      -0.0493773205297986 [Eh]
	 SCS Opposite-Spin Energy  =      -0.6217857651326794 [Eh]
	 SCS Correlation Energy    =      -0.6711630856624780 [Eh]
	 SCS Total Energy          =    -154.8167250744616297 [Eh]
	-----------------------------------------------------------


*** tstop() called on Moses-MBP.lan at Thu Feb 27 17:50:45 2025
Module time:
	user time   =      20.60 seconds =       0.34 minutes
	system time =       1.94 seconds =       0.03 minutes
	total time  =          3 seconds =       0.05 minutes
Total time:
	user time   =      92.35 seconds =       1.54 minutes
	system time =       8.28 seconds =       0.14 minutes
	total time  =         12 seconds =       0.20 minutes

    Psi4 stopped on: Thursday, 27 February 2025 05:50PM
    Psi4 wall time for execution: 0:00:12.78


    -----------------------------------------------------------------------
          Psi4: An Open-Source Ab Initio Electronic Structure Package
                               Psi4 1.9.1 release

                         Git: Rev {} zzzzzzz 


    D. G. A. Smith, L. A. Burns, A. C. Simmonett, R. M. Parrish,
    M. C. Schieber, R. Galvelis, P. Kraus, H. Kruse, R. Di Remigio,
    A. Alenaizan, A. M. James, S. Lehtola, J. P. Misiewicz, M. Scheurer,
    R. A. Shaw, J. B. Schriber, Y. Xie, Z. L. Glick, D. A. Sirianni,
    J. S. O'Brien, J. M. Waldrop, A. Kumar, E. G. Hohenstein,
    B. P. Pritchard, B. R. Brooks, H. F. Schaefer III, A. Yu. Sokolov,
    K. Patkowski, A. E. DePrince III, U. Bozkaya, R. A. King,
    F. A. Evangelista, J. M. Turney, T. D. Crawford, C. D. Sherrill,
    J. Chem. Phys. 152(18) 184108 (2020). https://doi.org/10.1063/5.0006002

                            Additional Code Authors
    E. T. Seidl, C. L. Janssen, E. F. Valeev, M. L. Leininger,
    J. F. Gonthier, R. M. Richard, H. R. McAlexander, M. Saitow, X. Wang,
    P. Verma, M. H. Lechner, A. Jiang, S. Behnle, A. G. Heide,
    M. F. Herbst, and D. L. Poole

             Previous Authors, Complete List of Code Contributors,
                       and Citations for Specific Modules
    https://github.com/psi4/psi4/blob/master/codemeta.json
    https://github.com/psi4/psi4/graphs/contributors
    http://psicode.org/psi4manual/master/introduction.html#citing-psifour

    -----------------------------------------------------------------------


    Psi4 started on: Thursday, 27 February 2025 05:50PM

    Process ID: 32292
    Host:       Moses-MBP.lan
    PSIDATADIR: /Users/moseschung/miniconda3/envs/psi4/share/psi4
    Memory:     9.3 GiB
    Threads:    10
    
  ==> Input QCSchema <==

--------------------------------------------------------------------------
{'driver': 'energy',
 'extras': {'psiapi': True, 'wfn_qcvars_only': True},
 'id': None,
 'keywords': {'SCF_TYPE': 'DF', 'function_kwargs': {}},
 'model': {'basis': 'aug-cc-pvtz', 'method': 'mp2'},
 'molecule': {'atom_labels': ['', '', '', '', '', '', '', '', '', '', '', '', '', '', '', '', '', ''],
              'atomic_numbers': [6, 6, 8, 1, 1, 1, 1, 1, 1, 6, 6, 8, 1, 1, 1, 1, 1, 1],
              'extras': {},
              'fix_com': True,
              'fix_orientation': True,
              'fix_symmetry': 'c1',
              'fragment_charges': [0.0, 0.0],
              'fragment_multiplicities': [1, 1],
              'fragments': [[0, 1, 2, 3, 4, 5, 6, 7, 8], [9, 10, 11, 12, 13, 14, 15, 16, 17]],
              'geometry': [-3.710945899415559, 2.390541343226662, 0.0535794048351058, -4.469404487403188,
                           -0.3287632129504002, 0.44117546124938456, -3.063520059655331, -2.011826999602035,
                           -1.0744812674001916, -3.274621365130225, -1.5299921910372998, -2.8119616075605105,
                           -4.808687805694012, 3.650657966835078, 1.2637033237945352, -4.030708346830404,
                           2.9714941767977847, -1.905365498872117, -1.7090191749847978, 2.657771294079904,
                           0.4807387674119697, -6.506946880120453, -0.5653625930360967, 0.11216091472429848,
                           -4.1154757916400655, -0.9032380653634544, 2.394540003708131, 2.4761553853405287,
                           -0.7850942777259565, 2.04208340459674, 3.287070880844741, -0.3502021558437193,
                           -0.6421062607170644, 5.645566248435889, 0.8946794957412559, -0.6097749364366065,
                           6.197271790763302, 1.158254716267863, -2.315133711916393, 0.6663325496454339,
                           -1.772126578944462, 2.0813178984134955, 2.2855424905178485, 1.011952119634918,
                           3.040971847526368, 3.876854404600129, -1.9204814181496543, 3.0439746223397206,
                           1.8560493161760443, 0.7859748901004199, -1.6354464677423484, 3.409795364610349,
                           -2.1666012384554074, -1.6438576387267607],
              'mass_numbers': [12, 12, 16, 1, 1, 1, 1, 1, 1, 12, 12, 16, 1, 1, 1, 1, 1, 1],
              'masses': [12.0, 12.0, 15.99491461957, 1.00782503223, 1.00782503223, 1.00782503223, 1.00782503223,
                         1.00782503223, 1.00782503223, 12.0, 12.0, 15.99491461957, 1.00782503223, 1.00782503223,
                         1.00782503223, 1.00782503223, 1.00782503223, 1.00782503223],
              'molecular_charge': 0.0,
              'molecular_multiplicity': 1,
              'name': 'dimer',
              'provenance': {'creator': 'QCElemental',
                             'routine': 'qcelemental.molparse.from_string',
                             'version': '0.29.0'},
              'real': [True, True, True, True, True, True, True, True, True, False, False, False, False, False, False,
                       False, False, False],
              'schema_name': 'qcschema_molecule',
              'schema_version': 2,
              'symbols': ['C', 'C', 'O', 'H', 'H', 'H', 'H', 'H', 'H', 'C', 'C', 'O', 'H', 'H', 'H', 'H', 'H', 'H'],
              'validated': True},
 'protocols': {'stdout': True},
 'provenance': {'creator': 'QCElemental', 'routine': 'qcelemental.models.results', 'version': '0.29.0'},
 'schema_name': 'qcschema_input',
 'schema_version': 1}
--------------------------------------------------------------------------

Scratch directory: /tmp/
   => Libint2 <=

    Primary   basis highest AM E, G, H:  6, 6, 3
    Auxiliary basis highest AM E, G, H:  7, 7, 4
    Onebody   basis highest AM E, G, H:  -, -, -
    Solid Harmonics ordering:            Gaussian

*** tstart() called on Moses-MBP.lan
*** at Thu Feb 27 17:50:45 2025

   => Loading Basis Set <=

    Name: AUG-CC-PVTZ
    Role: ORBITAL
    Keyword: BASIS
    atoms 1-2, 10-11 entry C          line   239 file /Users/moseschung/miniconda3/envs/psi4/share/psi4/basis/aug-cc-pvtz.gbs 
    atoms 3, 12      entry O          line   331 file /Users/moseschung/miniconda3/envs/psi4/share/psi4/basis/aug-cc-pvtz.gbs 
    atoms 4-9, 13-18 entry H          line    40 file /Users/moseschung/miniconda3/envs/psi4/share/psi4/basis/aug-cc-pvtz.gbs 


         ---------------------------------------------------------
                                   SCF
               by Justin Turney, Rob Parrish, Andy Simmonett
                          and Daniel G. A. Smith
                              RHF Reference
                       10 Threads,   9536 MiB Core
         ---------------------------------------------------------

  ==> Geometry <==

    Molecular point group: c1
    Full point group: C1

    Geometry (in Bohr), charge = 0, multiplicity = 1:

       Center              X                  Y                   Z               Mass       
    ------------   -----------------  -----------------  -----------------  -----------------
         C           -3.710945899416     2.390541343227     0.053579404835    12.000000000000
         C           -4.469404487403    -0.328763212950     0.441175461249    12.000000000000
         O           -3.063520059655    -2.011826999602    -1.074481267400    15.994914619570
         H           -3.274621365130    -1.529992191037    -2.811961607561     1.007825032230
         H           -4.808687805694     3.650657966835     1.263703323795     1.007825032230
         H           -4.030708346830     2.971494176798    -1.905365498872     1.007825032230
         H           -1.709019174985     2.657771294080     0.480738767412     1.007825032230
         H           -6.506946880120    -0.565362593036     0.112160914724     1.007825032230
         H           -4.115475791640    -0.903238065363     2.394540003708     1.007825032230
      Gh(C)           2.476155385341    -0.785094277726     2.042083404597    12.000000000000
      Gh(C)           3.287070880845    -0.350202155844    -0.642106260717    12.000000000000
      Gh(O)           5.645566248436     0.894679495741    -0.609774936437    15.994914619570
      Gh(H)           6.197271790763     1.158254716268    -2.315133711916     1.007825032230
      Gh(H)           0.666332549645    -1.772126578944     2.081317898413     1.007825032230
      Gh(H)           2.285542490518     1.011952119635     3.040971847526     1.007825032230
      Gh(H)           3.876854404600    -1.920481418150     3.043974622340     1.007825032230
      Gh(H)           1.856049316176     0.785974890100    -1.635446467742     1.007825032230
      Gh(H)           3.409795364610    -2.166601238455    -1.643857638727     1.007825032230

  Running in c1 symmetry.

  Rotational constants: A =      0.17802  B =      0.03783  C =      0.03626 [cm^-1]
  Rotational constants: A =   5336.84500  B =   1134.21342  C =   1087.07291 [MHz]
  Nuclear repulsion =   82.123454789098176

  Charge       = 0
  Multiplicity = 1
  Electrons    = 26
  Nalpha       = 13
  Nbeta        = 13

  ==> Algorithm <==

  SCF Algorithm Type is DF.
  DIIS enabled.
  MOM disabled.
  Fractional occupation disabled.
  Guess Type is SAD.
  Energy threshold   = 1.00e-08
  Density threshold  = 1.00e-08
  Integral threshold = 1.00e-12

  ==> Primary Basis <==

  Basis Set: AUG-CC-PVTZ
    Blend: AUG-CC-PVTZ
    Number of shells: 192
    Number of basis functions: 552
    Number of Cartesian functions: 630
    Spherical Harmonics?: true
    Max angular momentum: 3

   => Loading Basis Set <=

    Name: (AUG-CC-PVTZ AUX)
    Role: JKFIT
    Keyword: DF_BASIS_SCF
    atoms 1-2, 10-11 entry C          line   162 file /Users/moseschung/miniconda3/envs/psi4/share/psi4/basis/aug-cc-pvtz-jkfit.gbs 
    atoms 3, 12      entry O          line   286 file /Users/moseschung/miniconda3/envs/psi4/share/psi4/basis/aug-cc-pvtz-jkfit.gbs 
    atoms 4-9, 13-18 entry H          line    70 file /Users/moseschung/miniconda3/envs/psi4/share/psi4/basis/aug-cc-pvtz-jkfit.gbs 

  ==> Integral Setup <==

  DFHelper Memory: AOs need 2.607 GiB; user supplied 6.985 GiB. 
  Using in-core AOs.

  ==> MemDFJK: Density-Fitted J/K Matrices <==

    J tasked:                   Yes
    K tasked:                   Yes
    wK tasked:                   No
    OpenMP threads:              10
    Memory [MiB]:              7152
    Algorithm:                 Core
    Schwarz Cutoff:           1E-12
    Mask sparsity (%):       5.8936
    Fitting Condition:        1E-10

   => Auxiliary Basis Set <=

  Basis Set: (AUG-CC-PVTZ AUX)
    Blend: AUG-CC-PVTZ-JKFIT
    Number of shells: 348
    Number of basis functions: 1176
    Number of Cartesian functions: 1446
    Spherical Harmonics?: true
    Max angular momentum: 4

  Minimum eigenvalue in the overlap matrix is 7.6082989693E-06.
  Reciprocal condition number of the overlap matrix is 4.0173628616E-07.
    Using symmetric orthogonalization.

  ==> Pre-Iterations <==

  SCF Guess: Superposition of Atomic Densities via on-the-fly atomic UHF (no occupation information).

   -------------------------
    Irrep   Nso     Nmo    
   -------------------------
     A        552     552 
   -------------------------
    Total     552     552
   -------------------------

  ==> Iterations <==

                           Total Energy        Delta E     RMS |[F,P]|

   @DF-RHF iter SAD:  -153.45438512055833   -1.53454e+02   0.00000e+00 
   @DF-RHF iter   1:  -154.00367209463536   -5.49287e-01   9.37226e-04 ADIIS/DIIS
   @DF-RHF iter   2:  -154.11545012212980   -1.11778e-01   4.95218e-04 ADIIS/DIIS
   @DF-RHF iter   3:  -154.14337855602389   -2.79284e-02   8.38017e-05 DIIS
   @DF-RHF iter   4:  -154.14495435915430   -1.57580e-03   3.20713e-05 DIIS
   @DF-RHF iter   5:  -154.14514010006289   -1.85741e-04   6.20626e-06 DIIS
   @DF-RHF iter   6:  -154.14515034926308   -1.02492e-05   1.41999e-06 DIIS
   @DF-RHF iter   7:  -154.14515107788526   -7.28622e-07   4.03918e-07 DIIS
   @DF-RHF iter   8:  -154.14515113232460   -5.44393e-08   1.27785e-07 DIIS
   @DF-RHF iter   9:  -154.14515113843484   -6.11024e-09   3.28656e-08 DIIS
   @DF-RHF iter  10:  -154.14515113886617   -4.31328e-10   6.29552e-09 DIIS
  Energy and wave function converged.


  ==> Post-Iterations <==

    Orbital Energies [Eh]
    ---------------------

    Doubly Occupied:                                                      

       1A    -20.555426     2A    -11.273518     3A    -11.218553  
       4A     -1.361817     5A     -1.014494     6A     -0.848535  
       7A     -0.687015     8A     -0.625721     9A     -0.612011  
      10A     -0.544385    11A     -0.526212    12A     -0.480946  
      13A     -0.443023  

    Virtual:                                                              

      14A      0.023651    15A      0.032983    16A      0.034780  
      17A      0.039800    18A      0.049742    19A      0.054052  
      20A      0.055654    21A      0.059464    22A      0.071610  
      23A      0.076829    24A      0.078998    25A      0.087620  
      26A      0.097248    27A      0.105268    28A      0.115089  
      29A      0.118663    30A      0.120852    31A      0.129908  
      32A      0.136412    33A      0.139752    34A      0.144823  
      35A      0.148271    36A      0.155655    37A      0.162096  
      38A      0.167047    39A      0.169345    40A      0.172382  
      41A      0.182045    42A      0.193296    43A      0.199426  
      44A      0.204989    45A      0.215229    46A      0.220009  
      47A      0.237327    48A      0.245825    49A      0.252774  
      50A      0.264124    51A      0.269742    52A      0.276425  
      53A      0.285711    54A      0.291641    55A      0.295084  
      56A      0.297297    57A      0.304710    58A      0.308175  
      59A      0.318522    60A      0.320794    61A      0.330168  
      62A      0.334640    63A      0.342313    64A      0.345066  
      65A      0.349824    66A      0.353053    67A      0.355164  
      68A      0.360436    69A      0.367692    70A      0.372950  
      71A      0.375556    72A      0.383817    73A      0.392149  
      74A      0.399610    75A      0.404102    76A      0.409955  
      77A      0.415752    78A      0.420518    79A      0.431885  
      80A      0.437583    81A      0.446999    82A      0.449419  
      83A      0.455601    84A      0.461740    85A      0.462676  
      86A      0.468428    87A      0.475636    88A      0.479280  
      89A      0.489672    90A      0.491223    91A      0.497932  
      92A      0.500888    93A      0.506320    94A      0.512797  
      95A      0.520393    96A      0.527033    97A      0.533902  
      98A      0.537204    99A      0.540422   100A      0.542338  
     101A      0.549690   102A      0.563597   103A      0.572179  
     104A      0.580957   105A      0.588118   106A      0.591816  
     107A      0.600722   108A      0.609255   109A      0.610313  
     110A      0.616207   111A      0.625340   112A      0.640491  
     113A      0.647995   114A      0.654219   115A      0.659289  
     116A      0.665877   117A      0.681311   118A      0.684176  
     119A      0.688939   120A      0.702850   121A      0.715861  
     122A      0.718819   123A      0.730725   124A      0.743757  
     125A      0.753583   126A      0.763032   127A      0.778690  
     128A      0.797978   129A      0.810614   130A      0.815697  
     131A      0.830998   132A      0.836294   133A      0.846653  
     134A      0.847650   135A      0.857718   136A      0.868108  
     137A      0.880644   138A      0.888787   139A      0.895746  
     140A      0.903265   141A      0.906294   142A      0.917828  
     143A      0.924759   144A      0.936281   145A      0.941151  
     146A      0.946409   147A      0.951955   148A      0.957406  
     149A      0.962843   150A      0.973216   151A      0.982542  
     152A      0.994693   153A      1.003161   154A      1.009867  
     155A      1.019900   156A      1.022210   157A      1.028127  
     158A      1.038430   159A      1.043992   160A      1.051489  
     161A      1.054834   162A      1.066872   163A      1.071942  
     164A      1.081248   165A      1.088601   166A      1.092102  
     167A      1.100054   168A      1.104462   169A      1.110649  
     170A      1.126002   171A      1.127825   172A      1.133798  
     173A      1.141598   174A      1.149696   175A      1.154242  
     176A      1.167240   177A      1.171960   178A      1.173379  
     179A      1.181818   180A      1.186717   181A      1.199891  
     182A      1.206397   183A      1.209527   184A      1.212686  
     185A      1.220076   186A      1.231670   187A      1.233355  
     188A      1.249792   189A      1.254404   190A      1.268174  
     191A      1.270670   192A      1.275610   193A      1.279772  
     194A      1.294367   195A      1.299316   196A      1.307927  
     197A      1.320625   198A      1.323125   199A      1.338009  
     200A      1.348731   201A      1.356661   202A      1.362589  
     203A      1.370628   204A      1.375138   205A      1.382452  
     206A      1.392371   207A      1.404636   208A      1.416725  
     209A      1.420990   210A      1.429035   211A      1.433542  
     212A      1.445752   213A      1.459242   214A      1.470828  
     215A      1.474646   216A      1.491771   217A      1.497055  
     218A      1.507009   219A      1.534056   220A      1.538078  
     221A      1.550963   222A      1.552761   223A      1.556887  
     224A      1.562968   225A      1.571344   226A      1.582938  
     227A      1.599937   228A      1.614064   229A      1.616038  
     230A      1.628991   231A      1.638471   232A      1.657342  
     233A      1.662041   234A      1.670487   235A      1.688841  
     236A      1.697943   237A      1.701252   238A      1.715618  
     239A      1.721651   240A      1.735858   241A      1.738043  
     242A      1.751684   243A      1.761089   244A      1.765230  
     245A      1.777727   246A      1.802533   247A      1.813235  
     248A      1.829378   249A      1.833940   250A      1.849226  
     251A      1.853004   252A      1.862435   253A      1.876833  
     254A      1.891295   255A      1.895352   256A      1.921063  
     257A      1.922715   258A      1.930010   259A      1.947528  
     260A      1.955233   261A      1.969793   262A      1.974336  
     263A      1.981319   264A      2.002904   265A      2.009153  
     266A      2.021203   267A      2.031924   268A      2.036620  
     269A      2.051923   270A      2.069547   271A      2.080105  
     272A      2.093934   273A      2.108324   274A      2.115849  
     275A      2.123158   276A      2.132017   277A      2.148248  
     278A      2.163572   279A      2.187077   280A      2.198673  
     281A      2.209586   282A      2.223449   283A      2.239663  
     284A      2.249350   285A      2.264294   286A      2.266749  
     287A      2.273081   288A      2.284992   289A      2.290948  
     290A      2.315925   291A      2.328272   292A      2.352457  
     293A      2.370207   294A      2.388626   295A      2.404501  
     296A      2.435859   297A      2.444177   298A      2.447204  
     299A      2.487609   300A      2.490945   301A      2.516074  
     302A      2.527519   303A      2.543336   304A      2.585404  
     305A      2.611711   306A      2.629882   307A      2.651175  
     308A      2.676346   309A      2.687598   310A      2.707527  
     311A      2.717402   312A      2.731860   313A      2.743493  
     314A      2.753684   315A      2.764519   316A      2.788828  
     317A      2.799231   318A      2.809816   319A      2.835881  
     320A      2.853539   321A      2.868815   322A      2.881450  
     323A      2.903936   324A      2.921874   325A      2.976407  
     326A      3.012338   327A      3.026335   328A      3.044268  
     329A      3.063499   330A      3.087191   331A      3.120319  
     332A      3.148816   333A      3.177895   334A      3.187662  
     335A      3.218519   336A      3.242727   337A      3.291437  
     338A      3.297559   339A      3.358757   340A      3.376425  
     341A      3.444735   342A      3.449874   343A      3.478911  
     344A      3.495940   345A      3.519965   346A      3.533469  
     347A      3.581247   348A      3.614292   349A      3.622161  
     350A      3.678552   351A      3.693473   352A      3.710434  
     353A      3.721373   354A      3.741517   355A      3.754873  
     356A      3.769996   357A      3.783998   358A      3.811768  
     359A      3.826151   360A      3.837842   361A      3.871271  
     362A      3.886180   363A      3.910077   364A      3.954756  
     365A      3.982760   366A      3.995389   367A      3.999249  
     368A      4.042201   369A      4.054848   370A      4.069025  
     371A      4.094391   372A      4.102407   373A      4.121428  
     374A      4.132237   375A      4.172199   376A      4.173984  
     377A      4.175771   378A      4.192314   379A      4.223110  
     380A      4.228185   381A      4.239889   382A      4.250903  
     383A      4.272770   384A      4.290519   385A      4.323121  
     386A      4.328027   387A      4.346724   388A      4.371647  
     389A      4.374233   390A      4.381675   391A      4.407538  
     392A      4.433447   393A      4.453608   394A      4.466631  
     395A      4.488845   396A      4.493812   397A      4.523370  
     398A      4.559980   399A      4.565964   400A      4.578167  
     401A      4.592947   402A      4.601726   403A      4.612315  
     404A      4.628067   405A      4.639191   406A      4.647333  
     407A      4.669918   408A      4.683016   409A      4.695063  
     410A      4.712930   411A      4.729711   412A      4.736222  
     413A      4.766461   414A      4.781123   415A      4.803562  
     416A      4.822424   417A      4.838847   418A      4.868815  
     419A      4.883907   420A      4.890236   421A      4.903065  
     422A      4.922628   423A      4.925728   424A      4.938602  
     425A      4.951533   426A      4.959926   427A      4.973694  
     428A      5.004898   429A      5.013883   430A      5.018895  
     431A      5.043399   432A      5.051310   433A      5.070837  
     434A      5.076751   435A      5.097598   436A      5.110410  
     437A      5.127769   438A      5.139565   439A      5.161763  
     440A      5.200697   441A      5.205932   442A      5.230868  
     443A      5.247550   444A      5.279251   445A      5.289101  
     446A      5.310446   447A      5.337454   448A      5.358763  
     449A      5.386181   450A      5.387718   451A      5.399523  
     452A      5.427990   453A      5.458006   454A      5.467128  
     455A      5.486566   456A      5.536518   457A      5.537020  
     458A      5.563160   459A      5.565867   460A      5.582497  
     461A      5.598085   462A      5.610019   463A      5.613371  
     464A      5.635245   465A      5.639045   466A      5.677430  
     467A      5.697200   468A      5.716904   469A      5.725332  
     470A      5.755628   471A      5.770333   472A      5.788129  
     473A      5.814379   474A      5.847771   475A      5.874025  
     476A      5.903246   477A      5.951043   478A      6.013867  
     479A      6.022673   480A      6.032365   481A      6.069746  
     482A      6.082230   483A      6.140886   484A      6.166851  
     485A      6.194226   486A      6.199402   487A      6.223848  
     488A      6.264261   489A      6.291870   490A      6.311639  
     491A      6.326697   492A      6.331939   493A      6.431020  
     494A      6.485255   495A      6.550083   496A      6.719349  
     497A      6.757916   498A      6.832821   499A      6.846452  
     500A      6.869151   501A      6.897749   502A      6.927156  
     503A      6.997546   504A      7.051287   505A      7.064141  
     506A      7.113263   507A      7.189300   508A      7.208385  
     509A      7.235108   510A      7.303626   511A      7.387779  
     512A      7.413658   513A      7.529972   514A      7.540426  
     515A      7.658703   516A      7.750231   517A      7.843728  
     518A      7.855249   519A      7.866317   520A      7.882126  
     521A      7.901711   522A      7.919228   523A      7.960082  
     524A      8.008567   525A      8.107550   526A      8.176440  
     527A      8.198977   528A      8.286959   529A      8.384970  
     530A      8.390676   531A      8.421528   532A      8.588631  
     533A      8.660834   534A      8.877863   535A      9.073920  
     536A      9.922274   537A     10.092711   538A     10.370569  
     539A     10.391856   540A     10.442036   541A     10.825940  
     542A     11.088904   543A     11.918757   544A     12.274208  
     545A     13.291104   546A     14.125836   547A     16.571045  
     548A     17.775606   549A     18.747778   550A     53.399875  
     551A     54.558937   552A     65.865839  

    Final Occupation by Irrep:
              A 
    DOCC [    13 ]
    NA   [    13 ]
    NB   [    13 ]

  @DF-RHF Final Energy:  -154.14515113886617

   => Energetics <=

    Nuclear Repulsion Energy =             82.1234547890981759
    One-Electron Energy =                -372.1538953225851287
    Two-Electron Energy =                 135.8852893946207985
    Total Energy =                       -154.1451511388661686

Computation Completed


Properties will be evaluated at   0.000000,   0.000000,   0.000000 [a0]

Properties computed using the SCF density matrix


 Multipole Moments:

 ------------------------------------------------------------------------------------
     Multipole            Electronic (a.u.)      Nuclear  (a.u.)        Total (a.u.)
 ------------------------------------------------------------------------------------

 L = 1.  Multiply by 2.5417464519 to convert [e a0] to [Debye]
 Dipole X            :         97.6668097          -98.0357222           -0.3689125
 Dipole Y            :         -1.9802347            2.5573834            0.5771486
 Dipole Z            :          5.8965684           -6.0935050           -0.1969367
 Magnitude           :                                                    0.7127279

 ------------------------------------------------------------------------------------

*** tstop() called on Moses-MBP.lan at Thu Feb 27 17:50:55 2025
Module time:
	user time   =      70.75 seconds =       1.18 minutes
	system time =       5.75 seconds =       0.10 minutes
	total time  =         10 seconds =       0.17 minutes
Total time:
	user time   =     163.40 seconds =       2.72 minutes
	system time =      14.10 seconds =       0.23 minutes
	total time  =         22 seconds =       0.37 minutes

*** tstart() called on Moses-MBP.lan
*** at Thu Feb 27 17:50:55 2025


  //>>>>>>>>>>>>>>>>>>>>>>>>>>>>>>>>>>>//
  //               DFMP2               //
  //<<<<<<<<<<<<<<<<<<<<<<<<<<<<<<<<<<<//

   => Loading Basis Set <=

    Name: (AUG-CC-PVTZ AUX)
    Role: RIFIT
    Keyword: DF_BASIS_MP2
    atoms 1-2, 10-11 entry C          line   148 file /Users/moseschung/miniconda3/envs/psi4/share/psi4/basis/aug-cc-pvtz-ri.gbs 
    atoms 3, 12      entry O          line   264 file /Users/moseschung/miniconda3/envs/psi4/share/psi4/basis/aug-cc-pvtz-ri.gbs 
    atoms 4-9, 13-18 entry H          line    30 file /Users/moseschung/miniconda3/envs/psi4/share/psi4/basis/aug-cc-pvtz-ri.gbs 

	 --------------------------------------------------------
	                          DF-MP2                         
	      2nd-Order Density-Fitted Moller-Plesset Theory     
	              RMP2 Wavefunction,  10 Threads             
	                                                         
	        Rob Parrish, Justin Turney, Andy Simmonett,      
	           Ed Hohenstein, and C. David Sherrill          
	 --------------------------------------------------------

   => Auxiliary Basis Set <=

  Basis Set: (AUG-CC-PVTZ AUX)
    Blend: AUG-CC-PVTZ-RI
    Number of shells: 336
    Number of basis functions: 1188
    Number of Cartesian functions: 1476
    Spherical Harmonics?: true
    Max angular momentum: 4

	 --------------------------------------------------------
	                 NBF =   552, NAUX =  1188
	 --------------------------------------------------------
	   CLASS    FOCC     OCC    AOCC    AVIR     VIR    FVIR
	   PAIRS       0      13      13     539     539       0
	 --------------------------------------------------------

	-----------------------------------------------------------
	 ==================> DF-MP2 Energies <==================== 
	-----------------------------------------------------------
	 Reference Energy          =    -154.1451511388661686 [Eh]
	 Singles Energy            =      -0.0000000000000000 [Eh]
	 Same-Spin Energy          =      -0.1482090158352861 [Eh]
	 Opposite-Spin Energy      =      -0.5184672121811453 [Eh]
	 Correlation Energy        =      -0.6666762280164313 [Eh]
	 Total Energy              =    -154.8118273668825964 [Eh]
	-----------------------------------------------------------
	 ================> DF-SCS-MP2 Energies <================== 
	-----------------------------------------------------------
	 SCS Same-Spin Scale       =       0.3333333333333333 [-]
	 SCS Opposite-Spin Scale   =       1.2000000000000000 [-]
	 SCS Same-Spin Energy      =      -0.0494030052784287 [Eh]
	 SCS Opposite-Spin Energy  =      -0.6221606546173744 [Eh]
	 SCS Correlation Energy    =      -0.6715636598958030 [Eh]
	 SCS Total Energy          =    -154.8167147987619785 [Eh]
	-----------------------------------------------------------


*** tstop() called on Moses-MBP.lan at Thu Feb 27 17:50:58 2025
Module time:
	user time   =      20.68 seconds =       0.34 minutes
	system time =       1.94 seconds =       0.03 minutes
	total time  =          3 seconds =       0.05 minutes
Total time:
	user time   =     184.09 seconds =       3.07 minutes
	system time =      16.04 seconds =       0.27 minutes
	total time  =         25 seconds =       0.42 minutes

    Psi4 stopped on: Thursday, 27 February 2025 05:50PM
    Psi4 wall time for execution: 0:00:12.63


    -----------------------------------------------------------------------
          Psi4: An Open-Source Ab Initio Electronic Structure Package
                               Psi4 1.9.1 release

                         Git: Rev {} zzzzzzz 


    D. G. A. Smith, L. A. Burns, A. C. Simmonett, R. M. Parrish,
    M. C. Schieber, R. Galvelis, P. Kraus, H. Kruse, R. Di Remigio,
    A. Alenaizan, A. M. James, S. Lehtola, J. P. Misiewicz, M. Scheurer,
    R. A. Shaw, J. B. Schriber, Y. Xie, Z. L. Glick, D. A. Sirianni,
    J. S. O'Brien, J. M. Waldrop, A. Kumar, E. G. Hohenstein,
    B. P. Pritchard, B. R. Brooks, H. F. Schaefer III, A. Yu. Sokolov,
    K. Patkowski, A. E. DePrince III, U. Bozkaya, R. A. King,
    F. A. Evangelista, J. M. Turney, T. D. Crawford, C. D. Sherrill,
    J. Chem. Phys. 152(18) 184108 (2020). https://doi.org/10.1063/5.0006002

                            Additional Code Authors
    E. T. Seidl, C. L. Janssen, E. F. Valeev, M. L. Leininger,
    J. F. Gonthier, R. M. Richard, H. R. McAlexander, M. Saitow, X. Wang,
    P. Verma, M. H. Lechner, A. Jiang, S. Behnle, A. G. Heide,
    M. F. Herbst, and D. L. Poole

             Previous Authors, Complete List of Code Contributors,
                       and Citations for Specific Modules
    https://github.com/psi4/psi4/blob/master/codemeta.json
    https://github.com/psi4/psi4/graphs/contributors
    http://psicode.org/psi4manual/master/introduction.html#citing-psifour

    -----------------------------------------------------------------------


    Psi4 started on: Thursday, 27 February 2025 05:50PM

    Process ID: 32292
    Host:       Moses-MBP.lan
    PSIDATADIR: /Users/moseschung/miniconda3/envs/psi4/share/psi4
    Memory:     9.3 GiB
    Threads:    10
    
  ==> Input QCSchema <==

--------------------------------------------------------------------------
{'driver': 'energy',
 'extras': {'psiapi': True, 'wfn_qcvars_only': True},
 'id': None,
 'keywords': {'SCF_TYPE': 'DF', 'function_kwargs': {}},
 'model': {'basis': 'aug-cc-pvtz', 'method': 'mp2'},
 'molecule': {'atom_labels': ['', '', '', '', '', '', '', '', '', '', '', '', '', '', '', '', '', ''],
              'atomic_numbers': [6, 6, 8, 1, 1, 1, 1, 1, 1, 6, 6, 8, 1, 1, 1, 1, 1, 1],
              'extras': {},
              'fix_com': True,
              'fix_orientation': True,
              'fix_symmetry': 'c1',
              'fragment_charges': [0.0, 0.0],
              'fragment_multiplicities': [1, 1],
              'fragments': [[0, 1, 2, 3, 4, 5, 6, 7, 8], [9, 10, 11, 12, 13, 14, 15, 16, 17]],
              'geometry': [-3.710945899415559, 2.390541343226662, 0.0535794048351058, -4.469404487403188,
                           -0.3287632129504002, 0.44117546124938456, -3.063520059655331, -2.011826999602035,
                           -1.0744812674001916, -3.274621365130225, -1.5299921910372998, -2.8119616075605105,
                           -4.808687805694012, 3.650657966835078, 1.2637033237945352, -4.030708346830404,
                           2.9714941767977847, -1.905365498872117, -1.7090191749847978, 2.657771294079904,
                           0.4807387674119697, -6.506946880120453, -0.5653625930360967, 0.11216091472429848,
                           -4.1154757916400655, -0.9032380653634544, 2.394540003708131, 2.4761553853405287,
                           -0.7850942777259565, 2.04208340459674, 3.287070880844741, -0.3502021558437193,
                           -0.6421062607170644, 5.645566248435889, 0.8946794957412559, -0.6097749364366065,
                           6.197271790763302, 1.158254716267863, -2.315133711916393, 0.6663325496454339,
                           -1.772126578944462, 2.0813178984134955, 2.2855424905178485, 1.011952119634918,
                           3.040971847526368, 3.876854404600129, -1.9204814181496543, 3.0439746223397206,
                           1.8560493161760443, 0.7859748901004199, -1.6354464677423484, 3.409795364610349,
                           -2.1666012384554074, -1.6438576387267607],
              'mass_numbers': [12, 12, 16, 1, 1, 1, 1, 1, 1, 12, 12, 16, 1, 1, 1, 1, 1, 1],
              'masses': [12.0, 12.0, 15.99491461957, 1.00782503223, 1.00782503223, 1.00782503223, 1.00782503223,
                         1.00782503223, 1.00782503223, 12.0, 12.0, 15.99491461957, 1.00782503223, 1.00782503223,
                         1.00782503223, 1.00782503223, 1.00782503223, 1.00782503223],
              'molecular_charge': 0.0,
              'molecular_multiplicity': 1,
              'name': 'dimer',
              'provenance': {'creator': 'QCElemental',
                             'routine': 'qcelemental.molparse.from_string',
                             'version': '0.29.0'},
              'real': [True, True, True, True, True, True, True, True, True, True, True, True, True, True, True, True,
                       True, True],
              'schema_name': 'qcschema_molecule',
              'schema_version': 2,
              'symbols': ['C', 'C', 'O', 'H', 'H', 'H', 'H', 'H', 'H', 'C', 'C', 'O', 'H', 'H', 'H', 'H', 'H', 'H'],
              'validated': True},
 'protocols': {'stdout': True},
 'provenance': {'creator': 'QCElemental', 'routine': 'qcelemental.models.results', 'version': '0.29.0'},
 'schema_name': 'qcschema_input',
 'schema_version': 1}
--------------------------------------------------------------------------

Scratch directory: /tmp/
   => Libint2 <=

    Primary   basis highest AM E, G, H:  6, 6, 3
    Auxiliary basis highest AM E, G, H:  7, 7, 4
    Onebody   basis highest AM E, G, H:  -, -, -
    Solid Harmonics ordering:            Gaussian

*** tstart() called on Moses-MBP.lan
*** at Thu Feb 27 17:50:58 2025

   => Loading Basis Set <=

    Name: AUG-CC-PVTZ
    Role: ORBITAL
    Keyword: BASIS
    atoms 1-2, 10-11 entry C          line   239 file /Users/moseschung/miniconda3/envs/psi4/share/psi4/basis/aug-cc-pvtz.gbs 
    atoms 3, 12      entry O          line   331 file /Users/moseschung/miniconda3/envs/psi4/share/psi4/basis/aug-cc-pvtz.gbs 
    atoms 4-9, 13-18 entry H          line    40 file /Users/moseschung/miniconda3/envs/psi4/share/psi4/basis/aug-cc-pvtz.gbs 


         ---------------------------------------------------------
                                   SCF
               by Justin Turney, Rob Parrish, Andy Simmonett
                          and Daniel G. A. Smith
                              RHF Reference
                       10 Threads,   9536 MiB Core
         ---------------------------------------------------------

  ==> Geometry <==

    Molecular point group: c1
    Full point group: C1

    Geometry (in Bohr), charge = 0, multiplicity = 1:

       Center              X                  Y                   Z               Mass       
    ------------   -----------------  -----------------  -----------------  -----------------
         C           -3.710945899416     2.390541343227     0.053579404835    12.000000000000
         C           -4.469404487403    -0.328763212950     0.441175461249    12.000000000000
         O           -3.063520059655    -2.011826999602    -1.074481267400    15.994914619570
         H           -3.274621365130    -1.529992191037    -2.811961607561     1.007825032230
         H           -4.808687805694     3.650657966835     1.263703323795     1.007825032230
         H           -4.030708346830     2.971494176798    -1.905365498872     1.007825032230
         H           -1.709019174985     2.657771294080     0.480738767412     1.007825032230
         H           -6.506946880120    -0.565362593036     0.112160914724     1.007825032230
         H           -4.115475791640    -0.903238065363     2.394540003708     1.007825032230
         C            2.476155385341    -0.785094277726     2.042083404597    12.000000000000
         C            3.287070880845    -0.350202155844    -0.642106260717    12.000000000000
         O            5.645566248436     0.894679495741    -0.609774936437    15.994914619570
         H            6.197271790763     1.158254716268    -2.315133711916     1.007825032230
         H            0.666332549645    -1.772126578944     2.081317898413     1.007825032230
         H            2.285542490518     1.011952119635     3.040971847526     1.007825032230
         H            3.876854404600    -1.920481418150     3.043974622340     1.007825032230
         H            1.856049316176     0.785974890100    -1.635446467742     1.007825032230
         H            3.409795364610    -2.166601238455    -1.643857638727     1.007825032230

  Running in c1 symmetry.

  Rotational constants: A =      0.17802  B =      0.03783  C =      0.03626 [cm^-1]
  Rotational constants: A =   5336.84500  B =   1134.21342  C =   1087.07291 [MHz]
  Nuclear repulsion =  250.682916076387301

  Charge       = 0
  Multiplicity = 1
  Electrons    = 52
  Nalpha       = 26
  Nbeta        = 26

  ==> Algorithm <==

  SCF Algorithm Type is DF.
  DIIS enabled.
  MOM disabled.
  Fractional occupation disabled.
  Guess Type is SAD.
  Energy threshold   = 1.00e-08
  Density threshold  = 1.00e-08
  Integral threshold = 1.00e-12

  ==> Primary Basis <==

  Basis Set: AUG-CC-PVTZ
    Blend: AUG-CC-PVTZ
    Number of shells: 192
    Number of basis functions: 552
    Number of Cartesian functions: 630
    Spherical Harmonics?: true
    Max angular momentum: 3

   => Loading Basis Set <=

    Name: (AUG-CC-PVTZ AUX)
    Role: JKFIT
    Keyword: DF_BASIS_SCF
    atoms 1-2, 10-11 entry C          line   162 file /Users/moseschung/miniconda3/envs/psi4/share/psi4/basis/aug-cc-pvtz-jkfit.gbs 
    atoms 3, 12      entry O          line   286 file /Users/moseschung/miniconda3/envs/psi4/share/psi4/basis/aug-cc-pvtz-jkfit.gbs 
    atoms 4-9, 13-18 entry H          line    70 file /Users/moseschung/miniconda3/envs/psi4/share/psi4/basis/aug-cc-pvtz-jkfit.gbs 

  ==> Integral Setup <==

  DFHelper Memory: AOs need 2.607 GiB; user supplied 6.985 GiB. 
  Using in-core AOs.

  ==> MemDFJK: Density-Fitted J/K Matrices <==

    J tasked:                   Yes
    K tasked:                   Yes
    wK tasked:                   No
    OpenMP threads:              10
    Memory [MiB]:              7152
    Algorithm:                 Core
    Schwarz Cutoff:           1E-12
    Mask sparsity (%):       5.8936
    Fitting Condition:        1E-10

   => Auxiliary Basis Set <=

  Basis Set: (AUG-CC-PVTZ AUX)
    Blend: AUG-CC-PVTZ-JKFIT
    Number of shells: 348
    Number of basis functions: 1176
    Number of Cartesian functions: 1446
    Spherical Harmonics?: true
    Max angular momentum: 4

  Minimum eigenvalue in the overlap matrix is 7.6082989693E-06.
  Reciprocal condition number of the overlap matrix is 4.0173628616E-07.
    Using symmetric orthogonalization.

  ==> Pre-Iterations <==

  SCF Guess: Superposition of Atomic Densities via on-the-fly atomic UHF (no occupation information).

   -------------------------
    Irrep   Nso     Nmo    
   -------------------------
     A        552     552 
   -------------------------
    Total     552     552
   -------------------------

  ==> Iterations <==

                           Total Energy        Delta E     RMS |[F,P]|

   @DF-RHF iter SAD:  -307.05254438107949   -3.07053e+02   0.00000e+00 
   @DF-RHF iter   1:  -308.00294604485293   -9.50402e-01   1.32961e-03 ADIIS/DIIS
   @DF-RHF iter   2:  -308.22691812030115   -2.23972e-01   7.09628e-04 ADIIS/DIIS
   @DF-RHF iter   3:  -308.28498520252975   -5.80671e-02   1.19232e-04 ADIIS/DIIS
   @DF-RHF iter   4:  -308.28818700950495   -3.20181e-03   4.44514e-05 DIIS
   @DF-RHF iter   5:  -308.28853599838072   -3.48989e-04   8.53329e-06 DIIS
   @DF-RHF iter   6:  -308.28855612080326   -2.01224e-05   1.95805e-06 DIIS
   @DF-RHF iter   7:  -308.28855745862535   -1.33782e-06   5.75389e-07 DIIS
   @DF-RHF iter   8:  -308.28855756136437   -1.02739e-07   1.71189e-07 DIIS
   @DF-RHF iter   9:  -308.28855757212364   -1.07593e-08   4.46630e-08 DIIS
   @DF-RHF iter  10:  -308.28855757287090   -7.47264e-10   1.28666e-08 DIIS
   @DF-RHF iter  11:  -308.28855757290859   -3.76872e-11   4.75817e-09 DIIS
  Energy and wave function converged.


  ==> Post-Iterations <==

    Orbital Energies [Eh]
    ---------------------

    Doubly Occupied:                                                      

       1A    -20.561059     2A    -20.549560     3A    -11.277825  
       4A    -11.264792     5A    -11.221323     6A    -11.200140  
       7A     -1.368308     8A     -1.355632     9A     -1.018697  
      10A     -1.005309    11A     -0.853243    12A     -0.824020  
      13A     -0.699383    14A     -0.690653    15A     -0.638362  
      16A     -0.630741    17A     -0.616407    18A     -0.567247  
      19A     -0.550254    20A     -0.531929    21A     -0.519887  
      22A     -0.515772    23A     -0.485729    24A     -0.481056  
      25A     -0.448658    26A     -0.431602  

    Virtual:                                                              

      27A      0.025683    28A      0.033433    29A      0.038169  
      30A      0.040115    31A      0.049725    32A      0.054632  
      33A      0.056787    34A      0.060304    35A      0.073357  
      36A      0.076522    37A      0.079147    38A      0.091977  
      39A      0.108986    40A      0.114049    41A      0.119146  
      42A      0.123142    43A      0.130039    44A      0.134338  
      45A      0.138801    46A      0.147203    47A      0.149037  
      48A      0.154746    49A      0.163229    50A      0.169496  
      51A      0.170371    52A      0.173855    53A      0.183697  
      54A      0.188499    55A      0.198337    56A      0.203062  
      57A      0.206052    58A      0.221375    59A      0.228298  
      60A      0.237302    61A      0.249286    62A      0.267877  
      63A      0.274806    64A      0.275599    65A      0.279083  
      66A      0.284781    67A      0.290692    68A      0.295021  
      69A      0.303352    70A      0.312702    71A      0.313521  
      72A      0.318767    73A      0.325390    74A      0.332902  
      75A      0.339743    76A      0.346885    77A      0.348104  
      78A      0.352297    79A      0.358580    80A      0.362138  
      81A      0.368051    82A      0.375678    83A      0.378121  
      84A      0.380623    85A      0.387605    86A      0.396752  
      87A      0.402791    88A      0.406566    89A      0.415607  
      90A      0.419600    91A      0.422311    92A      0.431409  
      93A      0.436014    94A      0.439077    95A      0.443975  
      96A      0.449230    97A      0.460538    98A      0.462369  
      99A      0.465681   100A      0.470847   101A      0.475073  
     102A      0.481108   103A      0.488204   104A      0.491771  
     105A      0.495513   106A      0.497428   107A      0.510513  
     108A      0.511500   109A      0.518675   110A      0.524787  
     111A      0.529699   112A      0.531856   113A      0.537448  
     114A      0.547969   115A      0.554918   116A      0.562385  
     117A      0.568886   118A      0.572165   119A      0.580291  
     120A      0.590775   121A      0.599581   122A      0.605980  
     123A      0.612706   124A      0.618878   125A      0.621603  
     126A      0.640677   127A      0.644360   128A      0.647710  
     129A      0.667182   130A      0.667952   131A      0.678584  
     132A      0.688108   133A      0.698312   134A      0.721353  
     135A      0.729823   136A      0.749199   137A      0.755429  
     138A      0.762868   139A      0.774223   140A      0.791443  
     141A      0.798821   142A      0.806014   143A      0.813894  
     144A      0.821025   145A      0.826403   146A      0.831509  
     147A      0.837997   148A      0.849294   149A      0.858075  
     150A      0.859024   151A      0.864065   152A      0.878486  
     153A      0.887457   154A      0.891488   155A      0.898707  
     156A      0.901070   157A      0.913842   158A      0.921756  
     159A      0.924360   160A      0.935739   161A      0.938639  
     162A      0.946718   163A      0.954726   164A      0.957286  
     165A      0.971526   166A      0.975585   167A      0.981623  
     168A      0.987970   169A      1.002735   170A      1.006046  
     171A      1.006118   172A      1.015709   173A      1.018140  
     174A      1.027827   175A      1.034397   176A      1.037171  
     177A      1.048470   178A      1.058605   179A      1.075623  
     180A      1.076807   181A      1.083162   182A      1.088801  
     183A      1.097347   184A      1.102120   185A      1.109072  
     186A      1.110876   187A      1.128449   188A      1.130257  
     189A      1.140765   190A      1.143026   191A      1.146543  
     192A      1.156726   193A      1.160184   194A      1.165629  
     195A      1.177700   196A      1.178915   197A      1.185253  
     198A      1.190021   199A      1.195725   200A      1.200769  
     201A      1.212663   202A      1.226621   203A      1.235069  
     204A      1.249518   205A      1.251821   206A      1.258687  
     207A      1.272392   208A      1.294040   209A      1.301486  
     210A      1.302429   211A      1.313846   212A      1.319499  
     213A      1.324973   214A      1.337692   215A      1.342528  
     216A      1.350102   217A      1.352430   218A      1.362878  
     219A      1.380733   220A      1.389551   221A      1.392513  
     222A      1.406477   223A      1.415893   224A      1.428836  
     225A      1.439938   226A      1.442989   227A      1.460397  
     228A      1.463759   229A      1.478673   230A      1.485287  
     231A      1.500211   232A      1.502164   233A      1.512169  
     234A      1.532038   235A      1.538826   236A      1.545177  
     237A      1.557349   238A      1.565482   239A      1.594645  
     240A      1.605087   241A      1.608889   242A      1.617900  
     243A      1.622257   244A      1.645504   245A      1.651802  
     246A      1.656530   247A      1.673798   248A      1.676743  
     249A      1.679366   250A      1.694956   251A      1.700151  
     252A      1.703633   253A      1.719557   254A      1.731054  
     255A      1.738738   256A      1.743905   257A      1.755934  
     258A      1.760203   259A      1.763566   260A      1.774173  
     261A      1.778562   262A      1.782144   263A      1.802511  
     264A      1.813080   265A      1.829668   266A      1.833663  
     267A      1.837535   268A      1.851326   269A      1.856709  
     270A      1.869311   271A      1.880762   272A      1.888521  
     273A      1.900361   274A      1.911759   275A      1.929850  
     276A      1.943043   277A      1.952277   278A      1.963219  
     279A      1.975510   280A      1.983962   281A      2.003910  
     282A      2.007936   283A      2.013460   284A      2.038236  
     285A      2.044722   286A      2.057507   287A      2.063082  
     288A      2.080729   289A      2.097962   290A      2.111709  
     291A      2.113675   292A      2.122389   293A      2.140077  
     294A      2.155117   295A      2.167712   296A      2.180063  
     297A      2.193830   298A      2.199587   299A      2.211809  
     300A      2.223551   301A      2.236234   302A      2.259634  
     303A      2.274406   304A      2.282557   305A      2.291282  
     306A      2.316562   307A      2.340464   308A      2.350966  
     309A      2.368604   310A      2.375731   311A      2.405219  
     312A      2.433699   313A      2.450714   314A      2.460486  
     315A      2.470420   316A      2.505374   317A      2.513065  
     318A      2.539974   319A      2.560992   320A      2.577643  
     321A      2.596383   322A      2.607935   323A      2.638559  
     324A      2.652936   325A      2.683540   326A      2.729999  
     327A      2.735578   328A      2.771179   329A      2.811711  
     330A      2.835200   331A      2.849167   332A      2.891003  
     333A      2.919090   334A      2.932181   335A      2.935133  
     336A      2.951044   337A      2.959414   338A      2.989268  
     339A      3.011542   340A      3.043935   341A      3.058457  
     342A      3.064337   343A      3.084976   344A      3.125508  
     345A      3.158217   346A      3.182985   347A      3.217122  
     348A      3.234352   349A      3.288770   350A      3.341267  
     351A      3.389493   352A      3.420779   353A      3.435155  
     354A      3.469271   355A      3.477853   356A      3.487738  
     357A      3.511073   358A      3.519197   359A      3.533766  
     360A      3.552707   361A      3.607341   362A      3.618820  
     363A      3.632699   364A      3.658502   365A      3.666494  
     366A      3.688070   367A      3.699248   368A      3.719093  
     369A      3.726692   370A      3.736501   371A      3.748598  
     372A      3.761253   373A      3.780483   374A      3.791845  
     375A      3.804160   376A      3.806031   377A      3.829328  
     378A      3.840564   379A      3.871578   380A      3.884747  
     381A      3.895338   382A      3.899174   383A      3.912599  
     384A      3.948203   385A      3.951315   386A      3.970649  
     387A      3.978143   388A      3.987620   389A      3.995022  
     390A      4.004069   391A      4.018162   392A      4.037912  
     393A      4.051185   394A      4.060837   395A      4.071085  
     396A      4.085957   397A      4.091871   398A      4.107322  
     399A      4.111330   400A      4.129133   401A      4.135758  
     402A      4.166242   403A      4.170842   404A      4.197146  
     405A      4.205772   406A      4.213004   407A      4.221329  
     408A      4.261307   409A      4.265259   410A      4.277334  
     411A      4.293332   412A      4.321900   413A      4.335549  
     414A      4.345875   415A      4.354654   416A      4.367520  
     417A      4.368694   418A      4.400790   419A      4.413823  
     420A      4.441824   421A      4.482170   422A      4.501367  
     423A      4.514344   424A      4.534172   425A      4.560245  
     426A      4.565801   427A      4.583338   428A      4.589389  
     429A      4.621129   430A      4.631890   431A      4.639610  
     432A      4.648931   433A      4.663287   434A      4.672800  
     435A      4.699743   436A      4.714385   437A      4.730364  
     438A      4.753459   439A      4.783665   440A      4.790472  
     441A      4.799839   442A      4.829559   443A      4.872408  
     444A      4.873031   445A      4.894771   446A      4.902374  
     447A      4.913685   448A      4.924134   449A      4.946369  
     450A      4.950735   451A      4.961760   452A      4.985210  
     453A      4.998637   454A      5.030010   455A      5.033257  
     456A      5.047433   457A      5.069097   458A      5.089958  
     459A      5.101200   460A      5.126600   461A      5.133407  
     462A      5.145671   463A      5.165058   464A      5.192144  
     465A      5.202466   466A      5.212019   467A      5.232648  
     468A      5.244130   469A      5.258531   470A      5.282581  
     471A      5.294967   472A      5.354031   473A      5.362011  
     474A      5.386389   475A      5.388842   476A      5.406624  
     477A      5.421280   478A      5.443064   479A      5.467092  
     480A      5.487784   481A      5.524933   482A      5.534340  
     483A      5.565945   484A      5.576124   485A      5.607763  
     486A      5.611593   487A      5.616222   488A      5.630341  
     489A      5.660630   490A      5.662178   491A      5.691461  
     492A      5.721818   493A      5.780559   494A      5.783657  
     495A      5.809305   496A      5.836136   497A      5.856562  
     498A      5.891250   499A      6.005730   500A      6.041367  
     501A      6.070398   502A      6.088358   503A      6.127678  
     504A      6.144646   505A      6.174744   506A      6.196059  
     507A      6.225713   508A      6.249564   509A      6.265725  
     510A      6.293459   511A      6.311035   512A      6.330111  
     513A      6.427200   514A      6.449664   515A      6.710692  
     516A      6.725688   517A      6.739689   518A      6.760341  
     519A      6.832634   520A      6.846110   521A      6.886217  
     522A      6.916997   523A      6.946245   524A      6.958821  
     525A      6.995495   526A      7.042081   527A      7.134200  
     528A      7.189991   529A      7.370446   530A      7.380227  
     531A      7.383339   532A      7.403354   533A      7.515484  
     534A      7.529071   535A      7.534972   536A      7.548066  
     537A      7.623979   538A      7.652494   539A      7.854346  
     540A      7.880528   541A      7.949503   542A      7.958998  
     543A      8.256701   544A      8.282210   545A      8.607141  
     546A      8.654281   547A     15.935009   548A     16.549699  
     549A     17.766523   550A     18.201589   551A     18.621508  
     552A     18.755469  

    Final Occupation by Irrep:
              A 
    DOCC [    26 ]
    NA   [    26 ]
    NB   [    26 ]

  @DF-RHF Final Energy:  -308.28855757290859

   => Energetics <=

    Nuclear Repulsion Energy =            250.6829160763873006
    One-Electron Energy =                -917.3277625238131350
    Two-Electron Energy =                 358.3562888745172472
    Total Energy =                       -308.2885575729085872

Computation Completed


Properties will be evaluated at   0.000000,   0.000000,   0.000000 [a0]

Properties computed using the SCF density matrix


 Multipole Moments:

 ------------------------------------------------------------------------------------
     Multipole            Electronic (a.u.)      Nuclear  (a.u.)        Total (a.u.)
 ------------------------------------------------------------------------------------

 L = 1.  Multiply by 2.5417464519 to convert [e a0] to [Debye]
 Dipole X            :         -0.7940954            0.0000113           -0.7940840
 Dipole Y            :          0.3376761            0.0000132            0.3376894
 Dipole Z            :         -0.7424196           -0.0000151           -0.7424348
 Magnitude           :                                                    1.1383378

 ------------------------------------------------------------------------------------

*** tstop() called on Moses-MBP.lan at Thu Feb 27 17:51:10 2025
Module time:
	user time   =      89.26 seconds =       1.49 minutes
	system time =       7.08 seconds =       0.12 minutes
	total time  =         12 seconds =       0.20 minutes
Total time:
	user time   =     273.65 seconds =       4.56 minutes
	system time =      23.19 seconds =       0.39 minutes
	total time  =         37 seconds =       0.62 minutes

*** tstart() called on Moses-MBP.lan
*** at Thu Feb 27 17:51:10 2025


  //>>>>>>>>>>>>>>>>>>>>>>>>>>>>>>>>>>>//
  //               DFMP2               //
  //<<<<<<<<<<<<<<<<<<<<<<<<<<<<<<<<<<<//

   => Loading Basis Set <=

    Name: (AUG-CC-PVTZ AUX)
    Role: RIFIT
    Keyword: DF_BASIS_MP2
    atoms 1-2, 10-11 entry C          line   148 file /Users/moseschung/miniconda3/envs/psi4/share/psi4/basis/aug-cc-pvtz-ri.gbs 
    atoms 3, 12      entry O          line   264 file /Users/moseschung/miniconda3/envs/psi4/share/psi4/basis/aug-cc-pvtz-ri.gbs 
    atoms 4-9, 13-18 entry H          line    30 file /Users/moseschung/miniconda3/envs/psi4/share/psi4/basis/aug-cc-pvtz-ri.gbs 

	 --------------------------------------------------------
	                          DF-MP2                         
	      2nd-Order Density-Fitted Moller-Plesset Theory     
	              RMP2 Wavefunction,  10 Threads             
	                                                         
	        Rob Parrish, Justin Turney, Andy Simmonett,      
	           Ed Hohenstein, and C. David Sherrill          
	 --------------------------------------------------------

   => Auxiliary Basis Set <=

  Basis Set: (AUG-CC-PVTZ AUX)
    Blend: AUG-CC-PVTZ-RI
    Number of shells: 336
    Number of basis functions: 1188
    Number of Cartesian functions: 1476
    Spherical Harmonics?: true
    Max angular momentum: 4

	 --------------------------------------------------------
	                 NBF =   552, NAUX =  1188
	 --------------------------------------------------------
	   CLASS    FOCC     OCC    AOCC    AVIR     VIR    FVIR
	   PAIRS       0      26      26     526     526       0
	 --------------------------------------------------------

	-----------------------------------------------------------
	 ==================> DF-MP2 Energies <==================== 
	-----------------------------------------------------------
	 Reference Energy          =    -308.2885575729085872 [Eh]
	 Singles Energy            =      -0.0000000000000000 [Eh]
	 Same-Spin Energy          =      -0.2987960906292974 [Eh]
	 Opposite-Spin Energy      =      -1.0390388392357459 [Eh]
	 Correlation Energy        =      -1.3378349298650432 [Eh]
	 Total Energy              =    -309.6263925027736263 [Eh]
	-----------------------------------------------------------
	 ================> DF-SCS-MP2 Energies <================== 
	-----------------------------------------------------------
	 SCS Same-Spin Scale       =       0.3333333333333333 [-]
	 SCS Opposite-Spin Scale   =       1.2000000000000000 [-]
	 SCS Same-Spin Energy      =      -0.0995986968764324 [Eh]
	 SCS Opposite-Spin Energy  =      -1.2468466070828950 [Eh]
	 SCS Correlation Energy    =      -1.3464453039593274 [Eh]
	 SCS Total Energy          =    -309.6350028768679294 [Eh]
	-----------------------------------------------------------


*** tstop() called on Moses-MBP.lan at Thu Feb 27 17:51:14 2025
Module time:
	user time   =      32.96 seconds =       0.55 minutes
	system time =       2.59 seconds =       0.04 minutes
	total time  =          4 seconds =       0.07 minutes
Total time:
	user time   =     306.61 seconds =       5.11 minutes
	system time =      25.78 seconds =       0.43 minutes
	total time  =         41 seconds =       0.68 minutes

    Psi4 stopped on: Thursday, 27 February 2025 05:51PM
    Psi4 wall time for execution: 0:00:16.33


  //>>>>>>>>>>>>>>>>>>>>>>>>>>>>>>>>>>>//
  //          ManyBody Results         //
  //<<<<<<<<<<<<<<<<<<<<<<<<<<<<<<<<<<<//


   ==> N-Body: Counterpoise Corrected (CP) energies <==

        n-Body     Total Energy            Interaction Energy                          N-body Contribution to Interaction Energy
                   [Eh]                    [Eh]                  [kcal/mol]            [Eh]                  [kcal/mol]
             1  N/A                         0.000000000000        0.000000000000        0.000000000000        0.000000000000
  FULL/RTN   2  N/A                        -0.002716381225       -1.704554953230       -0.002716381225       -1.704554953230


    Psi4 stopped on: Thursday, 27 February 2025 05:51PM
    Psi4 wall time for execution: 0:00:43.44

*** Psi4 exiting successfully. Buy a developer a beer!
