
    -----------------------------------------------------------------------
          Psi4: An Open-Source Ab Initio Electronic Structure Package
                               Psi4 1.9.1 release

                         Git: Rev {} zzzzzzz 


    D. G. A. Smith, L. A. Burns, A. C. Simmonett, R. M. Parrish,
    M. C. Schieber, R. Galvelis, P. Kraus, H. Kruse, R. Di Remigio,
    A. Alenaizan, A. M. James, S. Lehtola, J. P. Misiewicz, M. Scheurer,
    R. A. Shaw, J. B. Schriber, Y. Xie, Z. L. Glick, D. A. Sirianni,
    J. S. O'Brien, J. M. Waldrop, A. Kumar, E. G. Hohenstein,
    B. P. Pritchard, B. R. Brooks, H. F. Schaefer III, A. Yu. Sokolov,
    K. Patkowski, A. E. DePrince III, U. Bozkaya, R. A. King,
    F. A. Evangelista, J. M. Turney, T. D. Crawford, C. D. Sherrill,
    J. Chem. Phys. 152(18) 184108 (2020). https://doi.org/10.1063/5.0006002

                            Additional Code Authors
    E. T. Seidl, C. L. Janssen, E. F. Valeev, M. L. Leininger,
    J. F. Gonthier, R. M. Richard, H. R. McAlexander, M. Saitow, X. Wang,
    P. Verma, M. H. Lechner, A. Jiang, S. Behnle, A. G. Heide,
    M. F. Herbst, and D. L. Poole

             Previous Authors, Complete List of Code Contributors,
                       and Citations for Specific Modules
    https://github.com/psi4/psi4/blob/master/codemeta.json
    https://github.com/psi4/psi4/graphs/contributors
    http://psicode.org/psi4manual/master/introduction.html#citing-psifour

    -----------------------------------------------------------------------


    Psi4 started on: Thursday, 27 February 2025 05:40PM

    Process ID: 31660
    Host:       Moses-MBP.lan
    PSIDATADIR: /Users/moseschung/miniconda3/envs/psi4/share/psi4
    Memory:     500.0 MiB
    Threads:    10
    
  ==> Input File <==

--------------------------------------------------------------------------
MEMORY 10 GB

molecule dimer {
0 1
C   -2.241596  -1.213442   0.019299
C   -2.033926   0.202492   0.493150
O   -1.554852   1.049665  -0.527483
H   -2.164128   1.010118  -1.269039
H   -2.578892  -1.856923   0.834362
H   -1.313318  -1.624076  -0.384115
H   -2.999941  -1.253496  -0.768382
H   -1.276352   0.234498   1.282498
H   -2.960509   0.601064   0.930361
--
0 1
C    1.691556   1.182242   0.275601
C    1.516675  -0.254690  -0.141996
O    2.732470  -0.967325  -0.183222
H    3.173383  -0.855838   0.662717
H    0.736434   1.709760   0.234921
H    2.398672   1.689296  -0.384159
H    2.077835   1.248017   1.298004
H    1.097149  -0.307138  -1.149818
H    0.792479  -0.753615   0.521962

units ang
no_reorient
no_com
symmetry c1
}

set {
basis        aug-cc-pVTZ
scf_type     df
}

energy("mp2", bsse_type="cp")
--------------------------------------------------------------------------

  Memory set to   9.313 GiB by Python driver.

Scratch directory: /tmp/

  //>>>>>>>>>>>>>>>>>>>>>>>>>>>>>>>>>>>>>//
  // ManyBody Setup: N-Body Levels [1, 2]//
  //<<<<<<<<<<<<<<<<<<<<<<<<<<<<<<<<<<<<<//

        Number of 1-body computations:     2
        Number of 2-body computations:     1

    -----------------------------------------------------------------------
          Psi4: An Open-Source Ab Initio Electronic Structure Package
                               Psi4 1.9.1 release

                         Git: Rev {} zzzzzzz 


    D. G. A. Smith, L. A. Burns, A. C. Simmonett, R. M. Parrish,
    M. C. Schieber, R. Galvelis, P. Kraus, H. Kruse, R. Di Remigio,
    A. Alenaizan, A. M. James, S. Lehtola, J. P. Misiewicz, M. Scheurer,
    R. A. Shaw, J. B. Schriber, Y. Xie, Z. L. Glick, D. A. Sirianni,
    J. S. O'Brien, J. M. Waldrop, A. Kumar, E. G. Hohenstein,
    B. P. Pritchard, B. R. Brooks, H. F. Schaefer III, A. Yu. Sokolov,
    K. Patkowski, A. E. DePrince III, U. Bozkaya, R. A. King,
    F. A. Evangelista, J. M. Turney, T. D. Crawford, C. D. Sherrill,
    J. Chem. Phys. 152(18) 184108 (2020). https://doi.org/10.1063/5.0006002

                            Additional Code Authors
    E. T. Seidl, C. L. Janssen, E. F. Valeev, M. L. Leininger,
    J. F. Gonthier, R. M. Richard, H. R. McAlexander, M. Saitow, X. Wang,
    P. Verma, M. H. Lechner, A. Jiang, S. Behnle, A. G. Heide,
    M. F. Herbst, and D. L. Poole

             Previous Authors, Complete List of Code Contributors,
                       and Citations for Specific Modules
    https://github.com/psi4/psi4/blob/master/codemeta.json
    https://github.com/psi4/psi4/graphs/contributors
    http://psicode.org/psi4manual/master/introduction.html#citing-psifour

    -----------------------------------------------------------------------


    Psi4 started on: Thursday, 27 February 2025 05:40PM

    Process ID: 31660
    Host:       Moses-MBP.lan
    PSIDATADIR: /Users/moseschung/miniconda3/envs/psi4/share/psi4
    Memory:     9.3 GiB
    Threads:    10
    
  ==> Input QCSchema <==

--------------------------------------------------------------------------
{'driver': 'energy',
 'extras': {'psiapi': True, 'wfn_qcvars_only': True},
 'id': None,
 'keywords': {'SCF_TYPE': 'DF', 'function_kwargs': {}},
 'model': {'basis': 'aug-cc-pvtz', 'method': 'mp2'},
 'molecule': {'atom_labels': ['', '', '', '', '', '', '', '', '', '', '', '', '', '', '', '', '', ''],
              'atomic_numbers': [6, 6, 8, 1, 1, 1, 1, 1, 1, 6, 6, 8, 1, 1, 1, 1, 1, 1],
              'extras': {},
              'fix_com': True,
              'fix_orientation': True,
              'fix_symmetry': 'c1',
              'fragment_charges': [0.0, 0.0],
              'fragment_multiplicities': [1, 1],
              'fragments': [[0, 1, 2, 3, 4, 5, 6, 7, 8], [9, 10, 11, 12, 13, 14, 15, 16, 17]],
              'geometry': [-4.236002523921766, -2.2930730491277975, 0.03646982449521063, -3.843563099447939,
                           0.38265442259620647, 0.931918438769528, -2.938244445620355, 1.9835793734786913,
                           -0.9967984058348717, -4.089609220434799, 1.9088463743952107, -2.3981361525248768,
                           -4.873399587134188, -3.5090759060635266, 1.5767156694892446, -2.481811335634024,
                           -3.069058846929048, -0.7258721506802336, -5.669066882532083, -2.3687641393568857,
                           -1.4520315397315369, -2.41195571968035, 0.44313699696760983, 2.4235699764474137,
                           -5.5945512019530295, 1.1358463438721842, 1.7581274878070705, 3.196577565874942,
                           2.2341135940135137, 0.5208104099023029, 2.8661003713287516, -0.4812943468928543,
                           -0.2683335509105098, 5.163619946029752, -1.8279793243084936, -0.3462394001586342,
                           5.996824761183738, -1.6172994277595767, 1.2523536286850354, 1.3916585694754102,
                           3.2309781402627755, 0.4439363511186784, 4.532833144804179, 3.1923067848314073,
                           -0.7259552986297537, 3.926539083890666, 2.358410329915502, 2.4528720697487625,
                           2.0733111288199306, -0.5804067027208665, -2.172841114121669, 1.4975682701766944,
                           -1.4241259540369011, 0.9863652278962189],
              'mass_numbers': [12, 12, 16, 1, 1, 1, 1, 1, 1, 12, 12, 16, 1, 1, 1, 1, 1, 1],
              'masses': [12.0, 12.0, 15.99491461957, 1.00782503223, 1.00782503223, 1.00782503223, 1.00782503223,
                         1.00782503223, 1.00782503223, 12.0, 12.0, 15.99491461957, 1.00782503223, 1.00782503223,
                         1.00782503223, 1.00782503223, 1.00782503223, 1.00782503223],
              'molecular_charge': 0.0,
              'molecular_multiplicity': 1,
              'name': 'dimer',
              'provenance': {'creator': 'QCElemental',
                             'routine': 'qcelemental.molparse.from_string',
                             'version': '0.29.0'},
              'real': [False, False, False, False, False, False, False, False, False, True, True, True, True, True,
                       True, True, True, True],
              'schema_name': 'qcschema_molecule',
              'schema_version': 2,
              'symbols': ['C', 'C', 'O', 'H', 'H', 'H', 'H', 'H', 'H', 'C', 'C', 'O', 'H', 'H', 'H', 'H', 'H', 'H'],
              'validated': True},
 'protocols': {'stdout': True},
 'provenance': {'creator': 'QCElemental', 'routine': 'qcelemental.models.results', 'version': '0.29.0'},
 'schema_name': 'qcschema_input',
 'schema_version': 1}
--------------------------------------------------------------------------

Scratch directory: /tmp/
   => Libint2 <=

    Primary   basis highest AM E, G, H:  6, 6, 3
    Auxiliary basis highest AM E, G, H:  7, 7, 4
    Onebody   basis highest AM E, G, H:  -, -, -
    Solid Harmonics ordering:            Gaussian

*** tstart() called on Moses-MBP.lan
*** at Thu Feb 27 17:40:48 2025

   => Loading Basis Set <=

    Name: AUG-CC-PVTZ
    Role: ORBITAL
    Keyword: BASIS
    atoms 1-2, 10-11 entry C          line   239 file /Users/moseschung/miniconda3/envs/psi4/share/psi4/basis/aug-cc-pvtz.gbs 
    atoms 3, 12      entry O          line   331 file /Users/moseschung/miniconda3/envs/psi4/share/psi4/basis/aug-cc-pvtz.gbs 
    atoms 4-9, 13-18 entry H          line    40 file /Users/moseschung/miniconda3/envs/psi4/share/psi4/basis/aug-cc-pvtz.gbs 


         ---------------------------------------------------------
                                   SCF
               by Justin Turney, Rob Parrish, Andy Simmonett
                          and Daniel G. A. Smith
                              RHF Reference
                       10 Threads,   9536 MiB Core
         ---------------------------------------------------------

  ==> Geometry <==

    Molecular point group: c1
    Full point group: C1

    Geometry (in Bohr), charge = 0, multiplicity = 1:

       Center              X                  Y                   Z               Mass       
    ------------   -----------------  -----------------  -----------------  -----------------
      Gh(C)          -4.236002523922    -2.293073049128     0.036469824495    12.000000000000
      Gh(C)          -3.843563099448     0.382654422596     0.931918438770    12.000000000000
      Gh(O)          -2.938244445620     1.983579373479    -0.996798405835    15.994914619570
      Gh(H)          -4.089609220435     1.908846374395    -2.398136152525     1.007825032230
      Gh(H)          -4.873399587134    -3.509075906064     1.576715669489     1.007825032230
      Gh(H)          -2.481811335634    -3.069058846929    -0.725872150680     1.007825032230
      Gh(H)          -5.669066882532    -2.368764139357    -1.452031539732     1.007825032230
      Gh(H)          -2.411955719680     0.443136996968     2.423569976447     1.007825032230
      Gh(H)          -5.594551201953     1.135846343872     1.758127487807     1.007825032230
         C            3.196577565875     2.234113594014     0.520810409902    12.000000000000
         C            2.866100371329    -0.481294346893    -0.268333550911    12.000000000000
         O            5.163619946030    -1.827979324308    -0.346239400159    15.994914619570
         H            5.996824761184    -1.617299427760     1.252353628685     1.007825032230
         H            1.391658569475     3.230978140263     0.443936351119     1.007825032230
         H            4.532833144804     3.192306784831    -0.725955298630     1.007825032230
         H            3.926539083891     2.358410329916     2.452872069749     1.007825032230
         H            2.073311128820    -0.580406702721    -2.172841114122     1.007825032230
         H            1.497568270177    -1.424125954037     0.986365227896     1.007825032230

  Running in c1 symmetry.

  Rotational constants: A =      0.16133  B =      0.04169  C =      0.03574 [cm^-1]
  Rotational constants: A =   4836.50893  B =   1249.84311  C =   1071.51141 [MHz]
  Nuclear repulsion =   82.161089996119102

  Charge       = 0
  Multiplicity = 1
  Electrons    = 26
  Nalpha       = 13
  Nbeta        = 13

  ==> Algorithm <==

  SCF Algorithm Type is DF.
  DIIS enabled.
  MOM disabled.
  Fractional occupation disabled.
  Guess Type is SAD.
  Energy threshold   = 1.00e-08
  Density threshold  = 1.00e-08
  Integral threshold = 1.00e-12

  ==> Primary Basis <==

  Basis Set: AUG-CC-PVTZ
    Blend: AUG-CC-PVTZ
    Number of shells: 192
    Number of basis functions: 552
    Number of Cartesian functions: 630
    Spherical Harmonics?: true
    Max angular momentum: 3

   => Loading Basis Set <=

    Name: (AUG-CC-PVTZ AUX)
    Role: JKFIT
    Keyword: DF_BASIS_SCF
    atoms 1-2, 10-11 entry C          line   162 file /Users/moseschung/miniconda3/envs/psi4/share/psi4/basis/aug-cc-pvtz-jkfit.gbs 
    atoms 3, 12      entry O          line   286 file /Users/moseschung/miniconda3/envs/psi4/share/psi4/basis/aug-cc-pvtz-jkfit.gbs 
    atoms 4-9, 13-18 entry H          line    70 file /Users/moseschung/miniconda3/envs/psi4/share/psi4/basis/aug-cc-pvtz-jkfit.gbs 

  ==> Integral Setup <==

  DFHelper Memory: AOs need 2.609 GiB; user supplied 6.985 GiB. 
  Using in-core AOs.

  ==> MemDFJK: Density-Fitted J/K Matrices <==

    J tasked:                   Yes
    K tasked:                   Yes
    wK tasked:                   No
    OpenMP threads:              10
    Memory [MiB]:              7152
    Algorithm:                 Core
    Schwarz Cutoff:           1E-12
    Mask sparsity (%):       5.7925
    Fitting Condition:        1E-10

   => Auxiliary Basis Set <=

  Basis Set: (AUG-CC-PVTZ AUX)
    Blend: AUG-CC-PVTZ-JKFIT
    Number of shells: 348
    Number of basis functions: 1176
    Number of Cartesian functions: 1446
    Spherical Harmonics?: true
    Max angular momentum: 4

  Minimum eigenvalue in the overlap matrix is 8.6413214239E-06.
  Reciprocal condition number of the overlap matrix is 4.5928511891E-07.
    Using symmetric orthogonalization.

  ==> Pre-Iterations <==

  SCF Guess: Superposition of Atomic Densities via on-the-fly atomic UHF (no occupation information).

   -------------------------
    Irrep   Nso     Nmo    
   -------------------------
     A        552     552 
   -------------------------
    Total     552     552
   -------------------------

  ==> Iterations <==

                           Total Energy        Delta E     RMS |[F,P]|

   @DF-RHF iter SAD:  -153.46021311442001   -1.53460e+02   0.00000e+00 
   @DF-RHF iter   1:  -154.00369520490955   -5.43482e-01   9.36376e-04 ADIIS/DIIS
   @DF-RHF iter   2:  -154.11549670795421   -1.11802e-01   4.93440e-04 ADIIS/DIIS
   @DF-RHF iter   3:  -154.14320823178062   -2.77115e-02   8.37318e-05 DIIS
   @DF-RHF iter   4:  -154.14478246110545   -1.57423e-03   3.20099e-05 DIIS
   @DF-RHF iter   5:  -154.14496774859012   -1.85287e-04   6.22168e-06 DIIS
   @DF-RHF iter   6:  -154.14497801688600   -1.02683e-05   1.42987e-06 DIIS
   @DF-RHF iter   7:  -154.14497875696486   -7.40079e-07   4.06927e-07 DIIS
   @DF-RHF iter   8:  -154.14497881254366   -5.55788e-08   1.28989e-07 DIIS
   @DF-RHF iter   9:  -154.14497881875732   -6.21367e-09   3.30620e-08 DIIS
   @DF-RHF iter  10:  -154.14497881918749   -4.30163e-10   6.25513e-09 DIIS
  Energy and wave function converged.


  ==> Post-Iterations <==

    Orbital Energies [Eh]
    ---------------------

    Doubly Occupied:                                                      

       1A    -20.555688     2A    -11.273351     3A    -11.219185  
       4A     -1.362345     5A     -1.015462     6A     -0.848505  
       7A     -0.685103     8A     -0.626724     9A     -0.614825  
      10A     -0.542952    11A     -0.527963    12A     -0.481784  
      13A     -0.442009  

    Virtual:                                                              

      14A      0.021021    15A      0.032305    16A      0.035247  
      17A      0.037387    18A      0.051357    19A      0.052460  
      20A      0.053771    21A      0.060212    22A      0.067329  
      23A      0.075993    24A      0.078674    25A      0.084993  
      26A      0.092636    27A      0.108150    28A      0.114975  
      29A      0.118113    30A      0.118636    31A      0.128153  
      32A      0.133879    33A      0.138530    34A      0.145049  
      35A      0.147230    36A      0.148315    37A      0.156587  
      38A      0.158656    39A      0.175353    40A      0.178668  
      41A      0.187726    42A      0.191516    43A      0.197912  
      44A      0.204630    45A      0.217992    46A      0.226208  
      47A      0.237720    48A      0.239547    49A      0.242091  
      50A      0.250620    51A      0.264934    52A      0.270531  
      53A      0.281717    54A      0.286628    55A      0.289695  
      56A      0.301365    57A      0.308284    58A      0.315361  
      59A      0.319946    60A      0.325225    61A      0.328674  
      62A      0.334524    63A      0.337643    64A      0.342565  
      65A      0.350036    66A      0.354586    67A      0.360161  
      68A      0.364097    69A      0.369560    70A      0.372970  
      71A      0.378493    72A      0.382728    73A      0.386936  
      74A      0.389891    75A      0.401161    76A      0.409784  
      77A      0.413177    78A      0.418776    79A      0.420275  
      80A      0.430984    81A      0.436645    82A      0.447967  
      83A      0.450278    84A      0.456598    85A      0.464390  
      86A      0.467521    87A      0.472208    88A      0.474199  
      89A      0.476941    90A      0.490142    91A      0.490674  
      92A      0.502908    93A      0.507496    94A      0.511782  
      95A      0.522283    96A      0.523914    97A      0.530098  
      98A      0.531186    99A      0.547259   100A      0.550376  
     101A      0.554300   102A      0.557525   103A      0.571334  
     104A      0.577913   105A      0.582981   106A      0.585850  
     107A      0.599876   108A      0.605335   109A      0.612958  
     110A      0.618648   111A      0.632767   112A      0.637384  
     113A      0.647981   114A      0.653953   115A      0.660045  
     116A      0.665989   117A      0.676994   118A      0.689685  
     119A      0.695093   120A      0.703088   121A      0.709823  
     122A      0.717676   123A      0.721590   124A      0.738639  
     125A      0.753928   126A      0.760865   127A      0.766576  
     128A      0.782015   129A      0.791724   130A      0.799554  
     131A      0.810545   132A      0.814316   133A      0.836274  
     134A      0.838711   135A      0.851860   136A      0.859840  
     137A      0.873468   138A      0.876716   139A      0.886777  
     140A      0.892412   141A      0.898731   142A      0.912865  
     143A      0.919180   144A      0.941017   145A      0.941578  
     146A      0.945663   147A      0.949492   148A      0.955206  
     149A      0.968186   150A      0.982953   151A      0.987749  
     152A      0.995621   153A      1.002399   154A      1.008674  
     155A      1.017038   156A      1.019020   157A      1.034240  
     158A      1.038729   159A      1.040838   160A      1.051322  
     161A      1.054691   162A      1.070662   163A      1.074431  
     164A      1.081276   165A      1.088835   166A      1.092709  
     167A      1.095164   168A      1.103017   169A      1.105443  
     170A      1.109675   171A      1.122284   172A      1.125317  
     173A      1.138816   174A      1.142420   175A      1.148269  
     176A      1.154122   177A      1.163267   178A      1.170536  
     179A      1.177654   180A      1.191941   181A      1.194993  
     182A      1.199013   183A      1.208090   184A      1.213812  
     185A      1.219390   186A      1.227339   187A      1.236576  
     188A      1.241838   189A      1.254907   190A      1.260382  
     191A      1.263891   192A      1.273201   193A      1.277283  
     194A      1.281425   195A      1.299085   196A      1.311313  
     197A      1.320158   198A      1.333453   199A      1.344855  
     200A      1.348419   201A      1.353133   202A      1.358922  
     203A      1.370472   204A      1.381962   205A      1.388634  
     206A      1.397752   207A      1.406530   208A      1.409924  
     209A      1.412964   210A      1.427160   211A      1.433149  
     212A      1.440746   213A      1.449650   214A      1.461849  
     215A      1.476380   216A      1.484895   217A      1.488764  
     218A      1.512154   219A      1.516755   220A      1.527526  
     221A      1.536961   222A      1.546839   223A      1.555286  
     224A      1.556540   225A      1.563672   226A      1.569606  
     227A      1.595814   228A      1.602979   229A      1.613304  
     230A      1.626355   231A      1.629918   232A      1.651524  
     233A      1.653404   234A      1.673796   235A      1.678474  
     236A      1.703985   237A      1.712724   238A      1.715616  
     239A      1.726646   240A      1.729459   241A      1.739226  
     242A      1.757164   243A      1.765410   244A      1.771096  
     245A      1.797815   246A      1.800792   247A      1.808698  
     248A      1.823820   249A      1.832599   250A      1.833147  
     251A      1.836905   252A      1.859323   253A      1.861832  
     254A      1.881867   255A      1.886773   256A      1.903597  
     257A      1.923853   258A      1.934199   259A      1.937339  
     260A      1.956705   261A      1.966082   262A      1.979355  
     263A      1.982001   264A      2.008752   265A      2.017005  
     266A      2.027411   267A      2.044218   268A      2.054526  
     269A      2.067102   270A      2.070050   271A      2.079826  
     272A      2.091299   273A      2.100826   274A      2.111627  
     275A      2.127444   276A      2.140790   277A      2.149187  
     278A      2.168665   279A      2.176152   280A      2.184912  
     281A      2.206446   282A      2.209711   283A      2.233982  
     284A      2.237555   285A      2.243912   286A      2.252761  
     287A      2.271524   288A      2.286201   289A      2.292119  
     290A      2.302237   291A      2.322554   292A      2.334873  
     293A      2.343898   294A      2.359675   295A      2.377671  
     296A      2.401938   297A      2.444165   298A      2.453834  
     299A      2.458025   300A      2.471558   301A      2.491989  
     302A      2.507676   303A      2.521406   304A      2.547193  
     305A      2.574430   306A      2.594517   307A      2.604357  
     308A      2.637158   309A      2.654819   310A      2.678176  
     311A      2.709253   312A      2.712699   313A      2.738760  
     314A      2.757138   315A      2.777040   316A      2.790910  
     317A      2.812674   318A      2.836412   319A      2.848768  
     320A      2.861760   321A      2.887656   322A      2.904217  
     323A      2.925857   324A      2.945737   325A      2.952603  
     326A      2.971510   327A      2.984884   328A      3.045113  
     329A      3.069608   330A      3.107192   331A      3.130081  
     332A      3.146013   333A      3.171743   334A      3.216076  
     335A      3.223016   336A      3.254426   337A      3.278138  
     338A      3.332707   339A      3.348173   340A      3.394400  
     341A      3.446803   342A      3.482691   343A      3.487953  
     344A      3.506195   345A      3.513195   346A      3.536925  
     347A      3.553343   348A      3.628940   349A      3.645525  
     350A      3.648069   351A      3.652983   352A      3.672660  
     353A      3.707620   354A      3.720066   355A      3.731982  
     356A      3.780104   357A      3.803343   358A      3.816521  
     359A      3.832494   360A      3.858012   361A      3.877895  
     362A      3.891237   363A      3.944108   364A      3.959745  
     365A      3.968592   366A      3.983937   367A      3.995027  
     368A      4.005656   369A      4.028901   370A      4.071353  
     371A      4.088665   372A      4.097013   373A      4.126919  
     374A      4.149187   375A      4.149956   376A      4.169615  
     377A      4.180212   378A      4.187245   379A      4.197058  
     380A      4.218367   381A      4.231255   382A      4.241864  
     383A      4.251948   384A      4.277608   385A      4.294960  
     386A      4.313560   387A      4.327245   388A      4.346744  
     389A      4.365445   390A      4.401431   391A      4.410103  
     392A      4.414167   393A      4.442132   394A      4.467248  
     395A      4.492692   396A      4.502449   397A      4.522257  
     398A      4.540859   399A      4.557715   400A      4.571111  
     401A      4.578535   402A      4.604407   403A      4.615220  
     404A      4.616582   405A      4.636724   406A      4.651146  
     407A      4.664691   408A      4.687339   409A      4.709208  
     410A      4.720088   411A      4.722453   412A      4.734249  
     413A      4.742269   414A      4.750300   415A      4.786608  
     416A      4.804060   417A      4.845414   418A      4.848598  
     419A      4.859958   420A      4.867225   421A      4.882088  
     422A      4.892089   423A      4.916209   424A      4.935685  
     425A      4.951125   426A      4.966433   427A      4.979550  
     428A      4.989362   429A      4.998512   430A      5.031055  
     431A      5.040580   432A      5.046167   433A      5.058558  
     434A      5.078232   435A      5.084694   436A      5.120798  
     437A      5.140107   438A      5.160085   439A      5.169053  
     440A      5.213165   441A      5.224593   442A      5.239247  
     443A      5.263371   444A      5.292457   445A      5.301798  
     446A      5.333585   447A      5.344322   448A      5.364849  
     449A      5.380286   450A      5.396247   451A      5.410573  
     452A      5.427940   453A      5.436994   454A      5.451260  
     455A      5.477034   456A      5.503194   457A      5.516662  
     458A      5.543682   459A      5.547748   460A      5.572724  
     461A      5.575752   462A      5.611432   463A      5.615758  
     464A      5.629259   465A      5.642190   466A      5.662077  
     467A      5.683771   468A      5.708041   469A      5.716937  
     470A      5.737100   471A      5.751950   472A      5.766347  
     473A      5.788783   474A      5.818431   475A      5.865260  
     476A      5.879645   477A      5.910943   478A      5.972658  
     479A      6.013244   480A      6.035197   481A      6.060823  
     482A      6.118526   483A      6.125521   484A      6.145357  
     485A      6.178582   486A      6.189559   487A      6.220334  
     488A      6.233911   489A      6.255082   490A      6.277945  
     491A      6.313622   492A      6.378335   493A      6.444222  
     494A      6.478320   495A      6.536431   496A      6.705845  
     497A      6.726912   498A      6.791391   499A      6.835920  
     500A      6.867101   501A      6.876179   502A      6.953498  
     503A      6.979405   504A      6.986359   505A      7.019858  
     506A      7.089658   507A      7.119929   508A      7.155742  
     509A      7.208065   510A      7.352242   511A      7.382129  
     512A      7.407864   513A      7.468014   514A      7.543325  
     515A      7.659438   516A      7.781409   517A      7.816898  
     518A      7.847900   519A      7.858006   520A      7.885334  
     521A      7.916262   522A      7.946406   523A      7.973781  
     524A      8.040067   525A      8.121091   526A      8.170794  
     527A      8.246406   528A      8.283145   529A      8.292308  
     530A      8.363702   531A      8.400726   532A      8.603130  
     533A      8.632601   534A      8.920162   535A      9.006392  
     536A     10.058818   537A     10.114696   538A     10.235055  
     539A     10.388554   540A     10.669995   541A     10.735330  
     542A     11.064259   543A     12.032919   544A     12.493589  
     545A     13.329095   546A     14.120169   547A     16.436433  
     548A     17.955243   549A     18.728132   550A     52.942833  
     551A     54.565432   552A     66.996463  

    Final Occupation by Irrep:
              A 
    DOCC [    13 ]
    NA   [    13 ]
    NB   [    13 ]

  @DF-RHF Final Energy:  -154.14497881918749

   => Energetics <=

    Nuclear Repulsion Energy =             82.1610899961191024
    One-Electron Energy =                -372.2203409289372757
    Two-Electron Energy =                 135.9142721136306591
    Total Energy =                       -154.1449788191874859

Computation Completed


Properties will be evaluated at   0.000000,   0.000000,   0.000000 [a0]

Properties computed using the SCF density matrix


 Multipole Moments:

 ------------------------------------------------------------------------------------
     Multipole            Electronic (a.u.)      Nuclear  (a.u.)        Total (a.u.)
 ------------------------------------------------------------------------------------

 L = 1.  Multiply by 2.5417464519 to convert [e a0] to [Debye]
 Dipole X            :        -97.3604446           97.1037621           -0.2566825
 Dipole Y            :         -0.6301251            1.0529441            0.4228189
 Dipole Z            :         -0.4638205            0.9816768            0.5178563
 Magnitude           :                                                    0.7161263

 ------------------------------------------------------------------------------------

*** tstop() called on Moses-MBP.lan at Thu Feb 27 17:40:58 2025
Module time:
	user time   =      71.37 seconds =       1.19 minutes
	system time =       6.07 seconds =       0.10 minutes
	total time  =         10 seconds =       0.17 minutes
Total time:
	user time   =      71.37 seconds =       1.19 minutes
	system time =       6.07 seconds =       0.10 minutes
	total time  =         10 seconds =       0.17 minutes

*** tstart() called on Moses-MBP.lan
*** at Thu Feb 27 17:40:58 2025


  //>>>>>>>>>>>>>>>>>>>>>>>>>>>>>>>>>>>//
  //               DFMP2               //
  //<<<<<<<<<<<<<<<<<<<<<<<<<<<<<<<<<<<//

   => Loading Basis Set <=

    Name: (AUG-CC-PVTZ AUX)
    Role: RIFIT
    Keyword: DF_BASIS_MP2
    atoms 1-2, 10-11 entry C          line   148 file /Users/moseschung/miniconda3/envs/psi4/share/psi4/basis/aug-cc-pvtz-ri.gbs 
    atoms 3, 12      entry O          line   264 file /Users/moseschung/miniconda3/envs/psi4/share/psi4/basis/aug-cc-pvtz-ri.gbs 
    atoms 4-9, 13-18 entry H          line    30 file /Users/moseschung/miniconda3/envs/psi4/share/psi4/basis/aug-cc-pvtz-ri.gbs 

	 --------------------------------------------------------
	                          DF-MP2                         
	      2nd-Order Density-Fitted Moller-Plesset Theory     
	              RMP2 Wavefunction,  10 Threads             
	                                                         
	        Rob Parrish, Justin Turney, Andy Simmonett,      
	           Ed Hohenstein, and C. David Sherrill          
	 --------------------------------------------------------

   => Auxiliary Basis Set <=

  Basis Set: (AUG-CC-PVTZ AUX)
    Blend: AUG-CC-PVTZ-RI
    Number of shells: 336
    Number of basis functions: 1188
    Number of Cartesian functions: 1476
    Spherical Harmonics?: true
    Max angular momentum: 4

	 --------------------------------------------------------
	                 NBF =   552, NAUX =  1188
	 --------------------------------------------------------
	   CLASS    FOCC     OCC    AOCC    AVIR     VIR    FVIR
	   PAIRS       0      13      13     539     539       0
	 --------------------------------------------------------

	-----------------------------------------------------------
	 ==================> DF-MP2 Energies <==================== 
	-----------------------------------------------------------
	 Reference Energy          =    -154.1449788191874859 [Eh]
	 Singles Energy            =      -0.0000000000000000 [Eh]
	 Same-Spin Energy          =      -0.1482304230739303 [Eh]
	 Opposite-Spin Energy      =      -0.5184412046507598 [Eh]
	 Correlation Energy        =      -0.6666716277246900 [Eh]
	 Total Energy              =    -154.8116504469121821 [Eh]
	-----------------------------------------------------------
	 ================> DF-SCS-MP2 Energies <================== 
	-----------------------------------------------------------
	 SCS Same-Spin Scale       =       0.3333333333333333 [-]
	 SCS Opposite-Spin Scale   =       1.2000000000000000 [-]
	 SCS Same-Spin Energy      =      -0.0494101410246434 [Eh]
	 SCS Opposite-Spin Energy  =      -0.6221294455809118 [Eh]
	 SCS Correlation Energy    =      -0.6715395866055551 [Eh]
	 SCS Total Energy          =    -154.8165184057930333 [Eh]
	-----------------------------------------------------------


*** tstop() called on Moses-MBP.lan at Thu Feb 27 17:41:01 2025
Module time:
	user time   =      20.47 seconds =       0.34 minutes
	system time =       2.04 seconds =       0.03 minutes
	total time  =          3 seconds =       0.05 minutes
Total time:
	user time   =      91.85 seconds =       1.53 minutes
	system time =       8.11 seconds =       0.14 minutes
	total time  =         13 seconds =       0.22 minutes

    Psi4 stopped on: Thursday, 27 February 2025 05:41PM
    Psi4 wall time for execution: 0:00:12.94


    -----------------------------------------------------------------------
          Psi4: An Open-Source Ab Initio Electronic Structure Package
                               Psi4 1.9.1 release

                         Git: Rev {} zzzzzzz 


    D. G. A. Smith, L. A. Burns, A. C. Simmonett, R. M. Parrish,
    M. C. Schieber, R. Galvelis, P. Kraus, H. Kruse, R. Di Remigio,
    A. Alenaizan, A. M. James, S. Lehtola, J. P. Misiewicz, M. Scheurer,
    R. A. Shaw, J. B. Schriber, Y. Xie, Z. L. Glick, D. A. Sirianni,
    J. S. O'Brien, J. M. Waldrop, A. Kumar, E. G. Hohenstein,
    B. P. Pritchard, B. R. Brooks, H. F. Schaefer III, A. Yu. Sokolov,
    K. Patkowski, A. E. DePrince III, U. Bozkaya, R. A. King,
    F. A. Evangelista, J. M. Turney, T. D. Crawford, C. D. Sherrill,
    J. Chem. Phys. 152(18) 184108 (2020). https://doi.org/10.1063/5.0006002

                            Additional Code Authors
    E. T. Seidl, C. L. Janssen, E. F. Valeev, M. L. Leininger,
    J. F. Gonthier, R. M. Richard, H. R. McAlexander, M. Saitow, X. Wang,
    P. Verma, M. H. Lechner, A. Jiang, S. Behnle, A. G. Heide,
    M. F. Herbst, and D. L. Poole

             Previous Authors, Complete List of Code Contributors,
                       and Citations for Specific Modules
    https://github.com/psi4/psi4/blob/master/codemeta.json
    https://github.com/psi4/psi4/graphs/contributors
    http://psicode.org/psi4manual/master/introduction.html#citing-psifour

    -----------------------------------------------------------------------


    Psi4 started on: Thursday, 27 February 2025 05:40PM

    Process ID: 31660
    Host:       Moses-MBP.lan
    PSIDATADIR: /Users/moseschung/miniconda3/envs/psi4/share/psi4
    Memory:     9.3 GiB
    Threads:    10
    
  ==> Input QCSchema <==

--------------------------------------------------------------------------
{'driver': 'energy',
 'extras': {'psiapi': True, 'wfn_qcvars_only': True},
 'id': None,
 'keywords': {'SCF_TYPE': 'DF', 'function_kwargs': {}},
 'model': {'basis': 'aug-cc-pvtz', 'method': 'mp2'},
 'molecule': {'atom_labels': ['', '', '', '', '', '', '', '', '', '', '', '', '', '', '', '', '', ''],
              'atomic_numbers': [6, 6, 8, 1, 1, 1, 1, 1, 1, 6, 6, 8, 1, 1, 1, 1, 1, 1],
              'extras': {},
              'fix_com': True,
              'fix_orientation': True,
              'fix_symmetry': 'c1',
              'fragment_charges': [0.0, 0.0],
              'fragment_multiplicities': [1, 1],
              'fragments': [[0, 1, 2, 3, 4, 5, 6, 7, 8], [9, 10, 11, 12, 13, 14, 15, 16, 17]],
              'geometry': [-4.236002523921766, -2.2930730491277975, 0.03646982449521063, -3.843563099447939,
                           0.38265442259620647, 0.931918438769528, -2.938244445620355, 1.9835793734786913,
                           -0.9967984058348717, -4.089609220434799, 1.9088463743952107, -2.3981361525248768,
                           -4.873399587134188, -3.5090759060635266, 1.5767156694892446, -2.481811335634024,
                           -3.069058846929048, -0.7258721506802336, -5.669066882532083, -2.3687641393568857,
                           -1.4520315397315369, -2.41195571968035, 0.44313699696760983, 2.4235699764474137,
                           -5.5945512019530295, 1.1358463438721842, 1.7581274878070705, 3.196577565874942,
                           2.2341135940135137, 0.5208104099023029, 2.8661003713287516, -0.4812943468928543,
                           -0.2683335509105098, 5.163619946029752, -1.8279793243084936, -0.3462394001586342,
                           5.996824761183738, -1.6172994277595767, 1.2523536286850354, 1.3916585694754102,
                           3.2309781402627755, 0.4439363511186784, 4.532833144804179, 3.1923067848314073,
                           -0.7259552986297537, 3.926539083890666, 2.358410329915502, 2.4528720697487625,
                           2.0733111288199306, -0.5804067027208665, -2.172841114121669, 1.4975682701766944,
                           -1.4241259540369011, 0.9863652278962189],
              'mass_numbers': [12, 12, 16, 1, 1, 1, 1, 1, 1, 12, 12, 16, 1, 1, 1, 1, 1, 1],
              'masses': [12.0, 12.0, 15.99491461957, 1.00782503223, 1.00782503223, 1.00782503223, 1.00782503223,
                         1.00782503223, 1.00782503223, 12.0, 12.0, 15.99491461957, 1.00782503223, 1.00782503223,
                         1.00782503223, 1.00782503223, 1.00782503223, 1.00782503223],
              'molecular_charge': 0.0,
              'molecular_multiplicity': 1,
              'name': 'dimer',
              'provenance': {'creator': 'QCElemental',
                             'routine': 'qcelemental.molparse.from_string',
                             'version': '0.29.0'},
              'real': [True, True, True, True, True, True, True, True, True, False, False, False, False, False, False,
                       False, False, False],
              'schema_name': 'qcschema_molecule',
              'schema_version': 2,
              'symbols': ['C', 'C', 'O', 'H', 'H', 'H', 'H', 'H', 'H', 'C', 'C', 'O', 'H', 'H', 'H', 'H', 'H', 'H'],
              'validated': True},
 'protocols': {'stdout': True},
 'provenance': {'creator': 'QCElemental', 'routine': 'qcelemental.models.results', 'version': '0.29.0'},
 'schema_name': 'qcschema_input',
 'schema_version': 1}
--------------------------------------------------------------------------

Scratch directory: /tmp/
   => Libint2 <=

    Primary   basis highest AM E, G, H:  6, 6, 3
    Auxiliary basis highest AM E, G, H:  7, 7, 4
    Onebody   basis highest AM E, G, H:  -, -, -
    Solid Harmonics ordering:            Gaussian

*** tstart() called on Moses-MBP.lan
*** at Thu Feb 27 17:41:01 2025

   => Loading Basis Set <=

    Name: AUG-CC-PVTZ
    Role: ORBITAL
    Keyword: BASIS
    atoms 1-2, 10-11 entry C          line   239 file /Users/moseschung/miniconda3/envs/psi4/share/psi4/basis/aug-cc-pvtz.gbs 
    atoms 3, 12      entry O          line   331 file /Users/moseschung/miniconda3/envs/psi4/share/psi4/basis/aug-cc-pvtz.gbs 
    atoms 4-9, 13-18 entry H          line    40 file /Users/moseschung/miniconda3/envs/psi4/share/psi4/basis/aug-cc-pvtz.gbs 


         ---------------------------------------------------------
                                   SCF
               by Justin Turney, Rob Parrish, Andy Simmonett
                          and Daniel G. A. Smith
                              RHF Reference
                       10 Threads,   9536 MiB Core
         ---------------------------------------------------------

  ==> Geometry <==

    Molecular point group: c1
    Full point group: C1

    Geometry (in Bohr), charge = 0, multiplicity = 1:

       Center              X                  Y                   Z               Mass       
    ------------   -----------------  -----------------  -----------------  -----------------
         C           -4.236002523922    -2.293073049128     0.036469824495    12.000000000000
         C           -3.843563099448     0.382654422596     0.931918438770    12.000000000000
         O           -2.938244445620     1.983579373479    -0.996798405835    15.994914619570
         H           -4.089609220435     1.908846374395    -2.398136152525     1.007825032230
         H           -4.873399587134    -3.509075906064     1.576715669489     1.007825032230
         H           -2.481811335634    -3.069058846929    -0.725872150680     1.007825032230
         H           -5.669066882532    -2.368764139357    -1.452031539732     1.007825032230
         H           -2.411955719680     0.443136996968     2.423569976447     1.007825032230
         H           -5.594551201953     1.135846343872     1.758127487807     1.007825032230
      Gh(C)           3.196577565875     2.234113594014     0.520810409902    12.000000000000
      Gh(C)           2.866100371329    -0.481294346893    -0.268333550911    12.000000000000
      Gh(O)           5.163619946030    -1.827979324308    -0.346239400159    15.994914619570
      Gh(H)           5.996824761184    -1.617299427760     1.252353628685     1.007825032230
      Gh(H)           1.391658569475     3.230978140263     0.443936351119     1.007825032230
      Gh(H)           4.532833144804     3.192306784831    -0.725955298630     1.007825032230
      Gh(H)           3.926539083891     2.358410329916     2.452872069749     1.007825032230
      Gh(H)           2.073311128820    -0.580406702721    -2.172841114122     1.007825032230
      Gh(H)           1.497568270177    -1.424125954037     0.986365227896     1.007825032230

  Running in c1 symmetry.

  Rotational constants: A =      0.16133  B =      0.04169  C =      0.03574 [cm^-1]
  Rotational constants: A =   4836.50893  B =   1249.84311  C =   1071.51141 [MHz]
  Nuclear repulsion =   82.147010658898481

  Charge       = 0
  Multiplicity = 1
  Electrons    = 26
  Nalpha       = 13
  Nbeta        = 13

  ==> Algorithm <==

  SCF Algorithm Type is DF.
  DIIS enabled.
  MOM disabled.
  Fractional occupation disabled.
  Guess Type is SAD.
  Energy threshold   = 1.00e-08
  Density threshold  = 1.00e-08
  Integral threshold = 1.00e-12

  ==> Primary Basis <==

  Basis Set: AUG-CC-PVTZ
    Blend: AUG-CC-PVTZ
    Number of shells: 192
    Number of basis functions: 552
    Number of Cartesian functions: 630
    Spherical Harmonics?: true
    Max angular momentum: 3

   => Loading Basis Set <=

    Name: (AUG-CC-PVTZ AUX)
    Role: JKFIT
    Keyword: DF_BASIS_SCF
    atoms 1-2, 10-11 entry C          line   162 file /Users/moseschung/miniconda3/envs/psi4/share/psi4/basis/aug-cc-pvtz-jkfit.gbs 
    atoms 3, 12      entry O          line   286 file /Users/moseschung/miniconda3/envs/psi4/share/psi4/basis/aug-cc-pvtz-jkfit.gbs 
    atoms 4-9, 13-18 entry H          line    70 file /Users/moseschung/miniconda3/envs/psi4/share/psi4/basis/aug-cc-pvtz-jkfit.gbs 

  ==> Integral Setup <==

  DFHelper Memory: AOs need 2.609 GiB; user supplied 6.985 GiB. 
  Using in-core AOs.

  ==> MemDFJK: Density-Fitted J/K Matrices <==

    J tasked:                   Yes
    K tasked:                   Yes
    wK tasked:                   No
    OpenMP threads:              10
    Memory [MiB]:              7152
    Algorithm:                 Core
    Schwarz Cutoff:           1E-12
    Mask sparsity (%):       5.7925
    Fitting Condition:        1E-10

   => Auxiliary Basis Set <=

  Basis Set: (AUG-CC-PVTZ AUX)
    Blend: AUG-CC-PVTZ-JKFIT
    Number of shells: 348
    Number of basis functions: 1176
    Number of Cartesian functions: 1446
    Spherical Harmonics?: true
    Max angular momentum: 4

  Minimum eigenvalue in the overlap matrix is 8.6413214239E-06.
  Reciprocal condition number of the overlap matrix is 4.5928511891E-07.
    Using symmetric orthogonalization.

  ==> Pre-Iterations <==

  SCF Guess: Superposition of Atomic Densities via on-the-fly atomic UHF (no occupation information).

   -------------------------
    Irrep   Nso     Nmo    
   -------------------------
     A        552     552 
   -------------------------
    Total     552     552
   -------------------------

  ==> Iterations <==

                           Total Energy        Delta E     RMS |[F,P]|

   @DF-RHF iter SAD:  -153.45576114485343   -1.53456e+02   0.00000e+00 
   @DF-RHF iter   1:  -154.00364984912287   -5.47889e-01   9.37336e-04 ADIIS/DIIS
   @DF-RHF iter   2:  -154.11543964200595   -1.11790e-01   4.95239e-04 ADIIS/DIIS
   @DF-RHF iter   3:  -154.14336206956321   -2.79224e-02   8.38027e-05 DIIS
   @DF-RHF iter   4:  -154.14493836315009   -1.57629e-03   3.20545e-05 DIIS
   @DF-RHF iter   5:  -154.14512405536948   -1.85692e-04   6.21164e-06 DIIS
   @DF-RHF iter   6:  -154.14513432373872   -1.02684e-05   1.42478e-06 DIIS
   @DF-RHF iter   7:  -154.14513505856567   -7.34827e-07   4.05828e-07 DIIS
   @DF-RHF iter   8:  -154.14513511371197   -5.51463e-08   1.28504e-07 DIIS
   @DF-RHF iter   9:  -154.14513511989711   -6.18513e-09   3.29856e-08 DIIS
   @DF-RHF iter  10:  -154.14513512033039   -4.33289e-10   6.29286e-09 DIIS
  Energy and wave function converged.


  ==> Post-Iterations <==

    Orbital Energies [Eh]
    ---------------------

    Doubly Occupied:                                                      

       1A    -20.555263     2A    -11.273523     3A    -11.218619  
       4A     -1.361839     5A     -1.014585     6A     -0.848795  
       7A     -0.686503     8A     -0.625655     9A     -0.613065  
      10A     -0.543736    11A     -0.526386    12A     -0.481065  
      13A     -0.442885  

    Virtual:                                                              

      14A      0.025326    15A      0.032670    16A      0.036206  
      17A      0.038254    18A      0.052066    19A      0.053047  
      20A      0.055176    21A      0.058808    22A      0.068134  
      23A      0.077946    24A      0.081194    25A      0.083529  
      26A      0.101454    27A      0.109844    28A      0.116865  
      29A      0.118462    30A      0.124285    31A      0.127351  
      32A      0.134756    33A      0.142113    34A      0.142725  
      35A      0.147968    36A      0.150273    37A      0.157442  
      38A      0.158587    39A      0.173337    40A      0.181783  
      41A      0.186900    42A      0.196150    43A      0.207843  
      44A      0.213414    45A      0.224125    46A      0.229753  
      47A      0.234117    48A      0.240104    49A      0.248833  
      50A      0.255805    51A      0.267329    52A      0.274990  
      53A      0.275501    54A      0.289553    55A      0.293849  
      56A      0.298575    57A      0.304079    58A      0.311557  
      59A      0.320002    60A      0.324035    61A      0.331230  
      62A      0.336575    63A      0.340380    64A      0.345211  
      65A      0.353203    66A      0.355698    67A      0.358394  
      68A      0.367140    69A      0.371178    70A      0.380840  
      71A      0.382308    72A      0.387166    73A      0.395718  
      74A      0.397355    75A      0.411760    76A      0.413334  
      77A      0.421828    78A      0.425481    79A      0.429234  
      80A      0.438683    81A      0.443565    82A      0.450274  
      83A      0.453664    84A      0.464879    85A      0.466743  
      86A      0.467497    87A      0.477405    88A      0.481440  
      89A      0.482439    90A      0.491548    91A      0.495182  
      92A      0.504540    93A      0.508261    94A      0.511491  
      95A      0.519177    96A      0.524602    97A      0.528432  
      98A      0.538187    99A      0.552709   100A      0.554006  
     101A      0.564076   102A      0.567124   103A      0.570190  
     104A      0.576374   105A      0.580340   106A      0.597293  
     107A      0.604833   108A      0.614574   109A      0.622082  
     110A      0.630047   111A      0.636646   112A      0.640004  
     113A      0.644121   114A      0.651091   115A      0.658176  
     116A      0.663197   117A      0.677324   118A      0.682269  
     119A      0.691047   120A      0.693538   121A      0.702189  
     122A      0.719624   123A      0.724449   124A      0.743154  
     125A      0.759140   126A      0.764659   127A      0.778242  
     128A      0.795724   129A      0.805350   130A      0.812287  
     131A      0.820152   132A      0.840380   133A      0.848887  
     134A      0.854601   135A      0.858756   136A      0.870778  
     137A      0.880389   138A      0.889759   139A      0.891361  
     140A      0.908306   141A      0.917390   142A      0.922074  
     143A      0.925204   144A      0.928210   145A      0.940267  
     146A      0.954296   147A      0.959581   148A      0.964435  
     149A      0.967646   150A      0.980114   151A      0.984487  
     152A      1.004231   153A      1.008351   154A      1.013374  
     155A      1.015038   156A      1.022630   157A      1.030478  
     158A      1.036604   159A      1.050747   160A      1.056925  
     161A      1.064224   162A      1.068033   163A      1.084040  
     164A      1.086928   165A      1.088916   166A      1.103106  
     167A      1.104764   168A      1.111236   169A      1.117158  
     170A      1.121332   171A      1.132831   172A      1.136626  
     173A      1.139277   174A      1.143250   175A      1.149946  
     176A      1.162107   177A      1.166798   178A      1.177937  
     179A      1.184481   180A      1.192991   181A      1.195466  
     182A      1.203914   183A      1.209528   184A      1.219191  
     185A      1.223908   186A      1.230719   187A      1.237089  
     188A      1.241997   189A      1.253948   190A      1.261561  
     191A      1.267923   192A      1.277533   193A      1.286829  
     194A      1.294552   195A      1.306098   196A      1.322161  
     197A      1.325125   198A      1.330803   199A      1.341180  
     200A      1.353262   201A      1.357355   202A      1.362003  
     203A      1.375579   204A      1.386579   205A      1.390166  
     206A      1.404815   207A      1.408788   208A      1.414115  
     209A      1.423231   210A      1.426907   211A      1.431254  
     212A      1.442226   213A      1.458571   214A      1.464170  
     215A      1.468326   216A      1.488339   217A      1.498983  
     218A      1.504624   219A      1.506344   220A      1.519085  
     221A      1.537377   222A      1.543210   223A      1.556788  
     224A      1.565181   225A      1.574196   226A      1.590767  
     227A      1.600210   228A      1.619446   229A      1.623712  
     230A      1.634842   231A      1.651105   232A      1.655864  
     233A      1.665663   234A      1.680872   235A      1.691239  
     236A      1.699018   237A      1.714276   238A      1.717101  
     239A      1.736596   240A      1.742238   241A      1.758397  
     242A      1.761324   243A      1.767875   244A      1.784661  
     245A      1.787546   246A      1.812750   247A      1.817256  
     248A      1.830877   249A      1.845097   250A      1.857579  
     251A      1.865140   252A      1.877558   253A      1.888659  
     254A      1.900437   255A      1.905744   256A      1.916815  
     257A      1.919227   258A      1.935600   259A      1.947999  
     260A      1.953449   261A      1.973608   262A      1.981620  
     263A      1.988401   264A      2.010618   265A      2.012488  
     266A      2.022034   267A      2.039200   268A      2.065269  
     269A      2.070596   270A      2.087678   271A      2.090841  
     272A      2.105926   273A      2.124537   274A      2.137805  
     275A      2.139624   276A      2.143177   277A      2.154299  
     278A      2.161845   279A      2.180631   280A      2.187492  
     281A      2.208154   282A      2.222169   283A      2.239921  
     284A      2.242556   285A      2.250496   286A      2.265795  
     287A      2.271964   288A      2.285341   289A      2.293360  
     290A      2.299319   291A      2.328931   292A      2.346760  
     293A      2.376096   294A      2.385158   295A      2.388727  
     296A      2.420725   297A      2.430554   298A      2.443504  
     299A      2.471729   300A      2.491117   301A      2.507194  
     302A      2.546046   303A      2.561352   304A      2.565439  
     305A      2.581586   306A      2.605225   307A      2.631670  
     308A      2.651830   309A      2.686835   310A      2.715738  
     311A      2.736129   312A      2.740504   313A      2.752696  
     314A      2.763301   315A      2.767163   316A      2.788063  
     317A      2.823202   318A      2.835783   319A      2.844022  
     320A      2.865069   321A      2.876130   322A      2.893207  
     323A      2.904304   324A      2.925379   325A      2.973686  
     326A      2.988617   327A      3.030326   328A      3.041549  
     329A      3.057259   330A      3.106771   331A      3.123890  
     332A      3.153741   333A      3.189139   334A      3.205350  
     335A      3.235064   336A      3.255427   337A      3.282952  
     338A      3.330559   339A      3.349296   340A      3.352586  
     341A      3.417678   342A      3.460178   343A      3.475011  
     344A      3.496476   345A      3.508003   346A      3.536248  
     347A      3.546570   348A      3.625395   349A      3.652738  
     350A      3.673631   351A      3.687478   352A      3.716723  
     353A      3.737129   354A      3.757346   355A      3.771714  
     356A      3.788345   357A      3.802198   358A      3.812312  
     359A      3.815995   360A      3.842763   361A      3.881945  
     362A      3.919699   363A      3.936442   364A      3.956361  
     365A      3.979961   366A      3.983578   367A      4.002787  
     368A      4.023475   369A      4.051655   370A      4.089055  
     371A      4.098328   372A      4.113171   373A      4.117499  
     374A      4.136143   375A      4.160032   376A      4.166121  
     377A      4.184074   378A      4.195062   379A      4.203891  
     380A      4.236019   381A      4.248527   382A      4.259997  
     383A      4.271191   384A      4.283711   385A      4.295261  
     386A      4.316422   387A      4.329793   388A      4.356099  
     389A      4.375709   390A      4.378371   391A      4.412880  
     392A      4.438753   393A      4.455228   394A      4.478243  
     395A      4.500437   396A      4.510140   397A      4.543932  
     398A      4.550726   399A      4.559170   400A      4.563319  
     401A      4.577197   402A      4.598982   403A      4.612468  
     404A      4.626919   405A      4.640733   406A      4.646826  
     407A      4.650199   408A      4.672636   409A      4.701331  
     410A      4.713076   411A      4.719125   412A      4.735852  
     413A      4.750513   414A      4.772082   415A      4.803373  
     416A      4.819155   417A      4.837688   418A      4.851067  
     419A      4.872286   420A      4.875205   421A      4.877277  
     422A      4.897543   423A      4.930922   424A      4.934953  
     425A      4.943805   426A      4.972351   427A      4.985647  
     428A      5.009949   429A      5.030610   430A      5.032210  
     431A      5.051956   432A      5.056799   433A      5.061048  
     434A      5.095287   435A      5.103687   436A      5.111423  
     437A      5.153471   438A      5.158777   439A      5.172007  
     440A      5.187386   441A      5.217416   442A      5.231154  
     443A      5.242572   444A      5.264665   445A      5.283850  
     446A      5.313823   447A      5.350513   448A      5.359331  
     449A      5.377539   450A      5.404442   451A      5.430805  
     452A      5.435376   453A      5.458801   454A      5.473706  
     455A      5.493712   456A      5.519611   457A      5.539950  
     458A      5.543548   459A      5.560571   460A      5.577796  
     461A      5.598521   462A      5.632661   463A      5.636734  
     464A      5.645961   465A      5.651951   466A      5.665668  
     467A      5.691556   468A      5.704076   469A      5.722081  
     470A      5.736811   471A      5.780978   472A      5.787192  
     473A      5.798893   474A      5.821894   475A      5.864234  
     476A      5.888258   477A      5.907834   478A      5.980704  
     479A      6.013821   480A      6.056207   481A      6.088033  
     482A      6.127243   483A      6.134478   484A      6.170811  
     485A      6.196473   486A      6.229255   487A      6.242137  
     488A      6.271397   489A      6.279381   490A      6.307125  
     491A      6.332956   492A      6.418173   493A      6.424398  
     494A      6.467264   495A      6.517883   496A      6.737130  
     497A      6.784431   498A      6.794764   499A      6.805440  
     500A      6.878660   501A      6.893933   502A      6.966280  
     503A      7.003927   504A      7.023143   505A      7.037786  
     506A      7.133568   507A      7.149658   508A      7.166280  
     509A      7.217473   510A      7.343887   511A      7.379224  
     512A      7.420419   513A      7.542280   514A      7.556828  
     515A      7.736602   516A      7.794787   517A      7.852757  
     518A      7.860967   519A      7.870033   520A      7.883625  
     521A      7.896463   522A      7.926317   523A      7.958833  
     524A      8.072571   525A      8.121109   526A      8.193951  
     527A      8.287340   528A      8.297886   529A      8.317184  
     530A      8.389437   531A      8.407084   532A      8.593653  
     533A      8.656765   534A      8.916918   535A      9.018510  
     536A     10.009218   537A     10.050816   538A     10.281543  
     539A     10.391751   540A     10.680965   541A     10.777135  
     542A     11.100685   543A     12.052014   544A     12.380733  
     545A     13.336779   546A     14.114772   547A     16.418500  
     548A     17.806730   549A     18.770671   550A     53.268088  
     551A     54.654177   552A     66.779029  

    Final Occupation by Irrep:
              A 
    DOCC [    13 ]
    NA   [    13 ]
    NB   [    13 ]

  @DF-RHF Final Energy:  -154.14513512033039

   => Energetics <=

    Nuclear Repulsion Energy =             82.1470106588984805
    One-Electron Energy =                -372.2004482576148234
    Two-Electron Energy =                 135.9083024783859628
    Total Energy =                       -154.1451351203303943

Computation Completed


Properties will be evaluated at   0.000000,   0.000000,   0.000000 [a0]

Properties computed using the SCF density matrix


 Multipole Moments:

 ------------------------------------------------------------------------------------
     Multipole            Electronic (a.u.)      Nuclear  (a.u.)        Total (a.u.)
 ------------------------------------------------------------------------------------

 L = 1.  Multiply by 2.5417464519 to convert [e a0] to [Debye]
 Dipole X            :         96.5393197          -97.1037433           -0.5644235
 Dipole Y            :          0.6184253           -1.0529459           -0.4345206
 Dipole Z            :          0.9711721           -0.9816844           -0.0105123
 Magnitude           :                                                    0.7123852

 ------------------------------------------------------------------------------------

*** tstop() called on Moses-MBP.lan at Thu Feb 27 17:41:12 2025
Module time:
	user time   =      73.99 seconds =       1.23 minutes
	system time =       5.98 seconds =       0.10 minutes
	total time  =         11 seconds =       0.18 minutes
Total time:
	user time   =     166.13 seconds =       2.77 minutes
	system time =      14.16 seconds =       0.24 minutes
	total time  =         24 seconds =       0.40 minutes

*** tstart() called on Moses-MBP.lan
*** at Thu Feb 27 17:41:12 2025


  //>>>>>>>>>>>>>>>>>>>>>>>>>>>>>>>>>>>//
  //               DFMP2               //
  //<<<<<<<<<<<<<<<<<<<<<<<<<<<<<<<<<<<//

   => Loading Basis Set <=

    Name: (AUG-CC-PVTZ AUX)
    Role: RIFIT
    Keyword: DF_BASIS_MP2
    atoms 1-2, 10-11 entry C          line   148 file /Users/moseschung/miniconda3/envs/psi4/share/psi4/basis/aug-cc-pvtz-ri.gbs 
    atoms 3, 12      entry O          line   264 file /Users/moseschung/miniconda3/envs/psi4/share/psi4/basis/aug-cc-pvtz-ri.gbs 
    atoms 4-9, 13-18 entry H          line    30 file /Users/moseschung/miniconda3/envs/psi4/share/psi4/basis/aug-cc-pvtz-ri.gbs 

	 --------------------------------------------------------
	                          DF-MP2                         
	      2nd-Order Density-Fitted Moller-Plesset Theory     
	              RMP2 Wavefunction,  10 Threads             
	                                                         
	        Rob Parrish, Justin Turney, Andy Simmonett,      
	           Ed Hohenstein, and C. David Sherrill          
	 --------------------------------------------------------

   => Auxiliary Basis Set <=

  Basis Set: (AUG-CC-PVTZ AUX)
    Blend: AUG-CC-PVTZ-RI
    Number of shells: 336
    Number of basis functions: 1188
    Number of Cartesian functions: 1476
    Spherical Harmonics?: true
    Max angular momentum: 4

	 --------------------------------------------------------
	                 NBF =   552, NAUX =  1188
	 --------------------------------------------------------
	   CLASS    FOCC     OCC    AOCC    AVIR     VIR    FVIR
	   PAIRS       0      13      13     539     539       0
	 --------------------------------------------------------

	-----------------------------------------------------------
	 ==================> DF-MP2 Energies <==================== 
	-----------------------------------------------------------
	 Reference Energy          =    -154.1451351203303943 [Eh]
	 Singles Energy            =      -0.0000000000000000 [Eh]
	 Same-Spin Energy          =      -0.1482152027313049 [Eh]
	 Opposite-Spin Energy      =      -0.5184349656854512 [Eh]
	 Correlation Energy        =      -0.6666501684167562 [Eh]
	 Total Energy              =    -154.8117852887471599 [Eh]
	-----------------------------------------------------------
	 ================> DF-SCS-MP2 Energies <================== 
	-----------------------------------------------------------
	 SCS Same-Spin Scale       =       0.3333333333333333 [-]
	 SCS Opposite-Spin Scale   =       1.2000000000000000 [-]
	 SCS Same-Spin Energy      =      -0.0494050675771016 [Eh]
	 SCS Opposite-Spin Energy  =      -0.6221219588225414 [Eh]
	 SCS Correlation Energy    =      -0.6715270263996430 [Eh]
	 SCS Total Energy          =    -154.8166621467300388 [Eh]
	-----------------------------------------------------------


*** tstop() called on Moses-MBP.lan at Thu Feb 27 17:41:15 2025
Module time:
	user time   =      20.44 seconds =       0.34 minutes
	system time =       1.89 seconds =       0.03 minutes
	total time  =          3 seconds =       0.05 minutes
Total time:
	user time   =     186.58 seconds =       3.11 minutes
	system time =      16.05 seconds =       0.27 minutes
	total time  =         27 seconds =       0.45 minutes

    Psi4 stopped on: Thursday, 27 February 2025 05:41PM
    Psi4 wall time for execution: 0:00:13.59


    -----------------------------------------------------------------------
          Psi4: An Open-Source Ab Initio Electronic Structure Package
                               Psi4 1.9.1 release

                         Git: Rev {} zzzzzzz 


    D. G. A. Smith, L. A. Burns, A. C. Simmonett, R. M. Parrish,
    M. C. Schieber, R. Galvelis, P. Kraus, H. Kruse, R. Di Remigio,
    A. Alenaizan, A. M. James, S. Lehtola, J. P. Misiewicz, M. Scheurer,
    R. A. Shaw, J. B. Schriber, Y. Xie, Z. L. Glick, D. A. Sirianni,
    J. S. O'Brien, J. M. Waldrop, A. Kumar, E. G. Hohenstein,
    B. P. Pritchard, B. R. Brooks, H. F. Schaefer III, A. Yu. Sokolov,
    K. Patkowski, A. E. DePrince III, U. Bozkaya, R. A. King,
    F. A. Evangelista, J. M. Turney, T. D. Crawford, C. D. Sherrill,
    J. Chem. Phys. 152(18) 184108 (2020). https://doi.org/10.1063/5.0006002

                            Additional Code Authors
    E. T. Seidl, C. L. Janssen, E. F. Valeev, M. L. Leininger,
    J. F. Gonthier, R. M. Richard, H. R. McAlexander, M. Saitow, X. Wang,
    P. Verma, M. H. Lechner, A. Jiang, S. Behnle, A. G. Heide,
    M. F. Herbst, and D. L. Poole

             Previous Authors, Complete List of Code Contributors,
                       and Citations for Specific Modules
    https://github.com/psi4/psi4/blob/master/codemeta.json
    https://github.com/psi4/psi4/graphs/contributors
    http://psicode.org/psi4manual/master/introduction.html#citing-psifour

    -----------------------------------------------------------------------


    Psi4 started on: Thursday, 27 February 2025 05:40PM

    Process ID: 31660
    Host:       Moses-MBP.lan
    PSIDATADIR: /Users/moseschung/miniconda3/envs/psi4/share/psi4
    Memory:     9.3 GiB
    Threads:    10
    
  ==> Input QCSchema <==

--------------------------------------------------------------------------
{'driver': 'energy',
 'extras': {'psiapi': True, 'wfn_qcvars_only': True},
 'id': None,
 'keywords': {'SCF_TYPE': 'DF', 'function_kwargs': {}},
 'model': {'basis': 'aug-cc-pvtz', 'method': 'mp2'},
 'molecule': {'atom_labels': ['', '', '', '', '', '', '', '', '', '', '', '', '', '', '', '', '', ''],
              'atomic_numbers': [6, 6, 8, 1, 1, 1, 1, 1, 1, 6, 6, 8, 1, 1, 1, 1, 1, 1],
              'extras': {},
              'fix_com': True,
              'fix_orientation': True,
              'fix_symmetry': 'c1',
              'fragment_charges': [0.0, 0.0],
              'fragment_multiplicities': [1, 1],
              'fragments': [[0, 1, 2, 3, 4, 5, 6, 7, 8], [9, 10, 11, 12, 13, 14, 15, 16, 17]],
              'geometry': [-4.236002523921766, -2.2930730491277975, 0.03646982449521063, -3.843563099447939,
                           0.38265442259620647, 0.931918438769528, -2.938244445620355, 1.9835793734786913,
                           -0.9967984058348717, -4.089609220434799, 1.9088463743952107, -2.3981361525248768,
                           -4.873399587134188, -3.5090759060635266, 1.5767156694892446, -2.481811335634024,
                           -3.069058846929048, -0.7258721506802336, -5.669066882532083, -2.3687641393568857,
                           -1.4520315397315369, -2.41195571968035, 0.44313699696760983, 2.4235699764474137,
                           -5.5945512019530295, 1.1358463438721842, 1.7581274878070705, 3.196577565874942,
                           2.2341135940135137, 0.5208104099023029, 2.8661003713287516, -0.4812943468928543,
                           -0.2683335509105098, 5.163619946029752, -1.8279793243084936, -0.3462394001586342,
                           5.996824761183738, -1.6172994277595767, 1.2523536286850354, 1.3916585694754102,
                           3.2309781402627755, 0.4439363511186784, 4.532833144804179, 3.1923067848314073,
                           -0.7259552986297537, 3.926539083890666, 2.358410329915502, 2.4528720697487625,
                           2.0733111288199306, -0.5804067027208665, -2.172841114121669, 1.4975682701766944,
                           -1.4241259540369011, 0.9863652278962189],
              'mass_numbers': [12, 12, 16, 1, 1, 1, 1, 1, 1, 12, 12, 16, 1, 1, 1, 1, 1, 1],
              'masses': [12.0, 12.0, 15.99491461957, 1.00782503223, 1.00782503223, 1.00782503223, 1.00782503223,
                         1.00782503223, 1.00782503223, 12.0, 12.0, 15.99491461957, 1.00782503223, 1.00782503223,
                         1.00782503223, 1.00782503223, 1.00782503223, 1.00782503223],
              'molecular_charge': 0.0,
              'molecular_multiplicity': 1,
              'name': 'dimer',
              'provenance': {'creator': 'QCElemental',
                             'routine': 'qcelemental.molparse.from_string',
                             'version': '0.29.0'},
              'real': [True, True, True, True, True, True, True, True, True, True, True, True, True, True, True, True,
                       True, True],
              'schema_name': 'qcschema_molecule',
              'schema_version': 2,
              'symbols': ['C', 'C', 'O', 'H', 'H', 'H', 'H', 'H', 'H', 'C', 'C', 'O', 'H', 'H', 'H', 'H', 'H', 'H'],
              'validated': True},
 'protocols': {'stdout': True},
 'provenance': {'creator': 'QCElemental', 'routine': 'qcelemental.models.results', 'version': '0.29.0'},
 'schema_name': 'qcschema_input',
 'schema_version': 1}
--------------------------------------------------------------------------

Scratch directory: /tmp/
   => Libint2 <=

    Primary   basis highest AM E, G, H:  6, 6, 3
    Auxiliary basis highest AM E, G, H:  7, 7, 4
    Onebody   basis highest AM E, G, H:  -, -, -
    Solid Harmonics ordering:            Gaussian

*** tstart() called on Moses-MBP.lan
*** at Thu Feb 27 17:41:15 2025

   => Loading Basis Set <=

    Name: AUG-CC-PVTZ
    Role: ORBITAL
    Keyword: BASIS
    atoms 1-2, 10-11 entry C          line   239 file /Users/moseschung/miniconda3/envs/psi4/share/psi4/basis/aug-cc-pvtz.gbs 
    atoms 3, 12      entry O          line   331 file /Users/moseschung/miniconda3/envs/psi4/share/psi4/basis/aug-cc-pvtz.gbs 
    atoms 4-9, 13-18 entry H          line    40 file /Users/moseschung/miniconda3/envs/psi4/share/psi4/basis/aug-cc-pvtz.gbs 


         ---------------------------------------------------------
                                   SCF
               by Justin Turney, Rob Parrish, Andy Simmonett
                          and Daniel G. A. Smith
                              RHF Reference
                       10 Threads,   9536 MiB Core
         ---------------------------------------------------------

  ==> Geometry <==

    Molecular point group: c1
    Full point group: C1

    Geometry (in Bohr), charge = 0, multiplicity = 1:

       Center              X                  Y                   Z               Mass       
    ------------   -----------------  -----------------  -----------------  -----------------
         C           -4.236002523922    -2.293073049128     0.036469824495    12.000000000000
         C           -3.843563099448     0.382654422596     0.931918438770    12.000000000000
         O           -2.938244445620     1.983579373479    -0.996798405835    15.994914619570
         H           -4.089609220435     1.908846374395    -2.398136152525     1.007825032230
         H           -4.873399587134    -3.509075906064     1.576715669489     1.007825032230
         H           -2.481811335634    -3.069058846929    -0.725872150680     1.007825032230
         H           -5.669066882532    -2.368764139357    -1.452031539732     1.007825032230
         H           -2.411955719680     0.443136996968     2.423569976447     1.007825032230
         H           -5.594551201953     1.135846343872     1.758127487807     1.007825032230
         C            3.196577565875     2.234113594014     0.520810409902    12.000000000000
         C            2.866100371329    -0.481294346893    -0.268333550911    12.000000000000
         O            5.163619946030    -1.827979324308    -0.346239400159    15.994914619570
         H            5.996824761184    -1.617299427760     1.252353628685     1.007825032230
         H            1.391658569475     3.230978140263     0.443936351119     1.007825032230
         H            4.532833144804     3.192306784831    -0.725955298630     1.007825032230
         H            3.926539083891     2.358410329916     2.452872069749     1.007825032230
         H            2.073311128820    -0.580406702721    -2.172841114122     1.007825032230
         H            1.497568270177    -1.424125954037     0.986365227896     1.007825032230

  Running in c1 symmetry.

  Rotational constants: A =      0.16133  B =      0.04169  C =      0.03574 [cm^-1]
  Rotational constants: A =   4836.50893  B =   1249.84311  C =   1071.51141 [MHz]
  Nuclear repulsion =  251.445969606431959

  Charge       = 0
  Multiplicity = 1
  Electrons    = 52
  Nalpha       = 26
  Nbeta        = 26

  ==> Algorithm <==

  SCF Algorithm Type is DF.
  DIIS enabled.
  MOM disabled.
  Fractional occupation disabled.
  Guess Type is SAD.
  Energy threshold   = 1.00e-08
  Density threshold  = 1.00e-08
  Integral threshold = 1.00e-12

  ==> Primary Basis <==

  Basis Set: AUG-CC-PVTZ
    Blend: AUG-CC-PVTZ
    Number of shells: 192
    Number of basis functions: 552
    Number of Cartesian functions: 630
    Spherical Harmonics?: true
    Max angular momentum: 3

   => Loading Basis Set <=

    Name: (AUG-CC-PVTZ AUX)
    Role: JKFIT
    Keyword: DF_BASIS_SCF
    atoms 1-2, 10-11 entry C          line   162 file /Users/moseschung/miniconda3/envs/psi4/share/psi4/basis/aug-cc-pvtz-jkfit.gbs 
    atoms 3, 12      entry O          line   286 file /Users/moseschung/miniconda3/envs/psi4/share/psi4/basis/aug-cc-pvtz-jkfit.gbs 
    atoms 4-9, 13-18 entry H          line    70 file /Users/moseschung/miniconda3/envs/psi4/share/psi4/basis/aug-cc-pvtz-jkfit.gbs 

  ==> Integral Setup <==

  DFHelper Memory: AOs need 2.609 GiB; user supplied 6.985 GiB. 
  Using in-core AOs.

  ==> MemDFJK: Density-Fitted J/K Matrices <==

    J tasked:                   Yes
    K tasked:                   Yes
    wK tasked:                   No
    OpenMP threads:              10
    Memory [MiB]:              7152
    Algorithm:                 Core
    Schwarz Cutoff:           1E-12
    Mask sparsity (%):       5.7925
    Fitting Condition:        1E-10

   => Auxiliary Basis Set <=

  Basis Set: (AUG-CC-PVTZ AUX)
    Blend: AUG-CC-PVTZ-JKFIT
    Number of shells: 348
    Number of basis functions: 1176
    Number of Cartesian functions: 1446
    Spherical Harmonics?: true
    Max angular momentum: 4

  Minimum eigenvalue in the overlap matrix is 8.6413214239E-06.
  Reciprocal condition number of the overlap matrix is 4.5928511891E-07.
    Using symmetric orthogonalization.

  ==> Pre-Iterations <==

  SCF Guess: Superposition of Atomic Densities via on-the-fly atomic UHF (no occupation information).

   -------------------------
    Irrep   Nso     Nmo    
   -------------------------
     A        552     552 
   -------------------------
    Total     552     552
   -------------------------

  ==> Iterations <==

                           Total Energy        Delta E     RMS |[F,P]|

   @DF-RHF iter SAD:  -307.06553352054391   -3.07066e+02   0.00000e+00 
   @DF-RHF iter   1:  -308.00783414897535   -9.42301e-01   1.31352e-03 ADIIS/DIIS
   @DF-RHF iter   2:  -308.23157465938078   -2.23741e-01   6.80272e-04 ADIIS/DIIS
   @DF-RHF iter   3:  -308.28472472458321   -5.31501e-02   1.18220e-04 ADIIS/DIIS
   @DF-RHF iter   4:  -308.28788397252708   -3.15925e-03   4.43026e-05 DIIS
   @DF-RHF iter   5:  -308.28823222085168   -3.48248e-04   8.70719e-06 DIIS
   @DF-RHF iter   6:  -308.28825267954591   -2.04587e-05   2.02293e-06 DIIS
   @DF-RHF iter   7:  -308.28825413113856   -1.45159e-06   5.83638e-07 DIIS
   @DF-RHF iter   8:  -308.28825424194366   -1.10805e-07   1.81598e-07 DIIS
   @DF-RHF iter   9:  -308.28825425433286   -1.23892e-08   4.77616e-08 DIIS
   @DF-RHF iter  10:  -308.28825425522200   -8.89145e-10   1.16669e-08 DIIS
   @DF-RHF iter  11:  -308.28825425525781   -3.58114e-11   4.73845e-09 DIIS
  Energy and wave function converged.


  ==> Post-Iterations <==

    Orbital Energies [Eh]
    ---------------------

    Doubly Occupied:                                                      

       1A    -20.562254     2A    -20.547287     3A    -11.279264  
       4A    -11.262573     5A    -11.221998     6A    -11.203627  
       7A     -1.369739     8A     -1.353977     9A     -1.019711  
      10A     -1.002548    11A     -0.854557    12A     -0.837549  
      13A     -0.695846    14A     -0.675528    15A     -0.633674  
      16A     -0.619859    17A     -0.612773    18A     -0.603251  
      19A     -0.550953    20A     -0.532280    21A     -0.530369  
      22A     -0.511635    23A     -0.487793    24A     -0.470657  
      25A     -0.449169    26A     -0.432399  

    Virtual:                                                              

      27A      0.026909    28A      0.033218    29A      0.038334  
      30A      0.038480    31A      0.052636    32A      0.054301  
      33A      0.055457    34A      0.060103    35A      0.068758  
      36A      0.076866    37A      0.081195    38A      0.087805  
      39A      0.114597    40A      0.116575    41A      0.120916  
      42A      0.126008    43A      0.128843    44A      0.133823  
      45A      0.139244    46A      0.145023    47A      0.149995  
      48A      0.153787    49A      0.156842    50A      0.160501  
      51A      0.164754    52A      0.179737    53A      0.186963  
      54A      0.193431    55A      0.198822    56A      0.206965  
      57A      0.218704    58A      0.221816    59A      0.226265  
      60A      0.231921    61A      0.244543    62A      0.256346  
      63A      0.267730    64A      0.275242    65A      0.282359  
      66A      0.282915    67A      0.293090    68A      0.301114  
      69A      0.306437    70A      0.310682    71A      0.313346  
      72A      0.316527    73A      0.329610    74A      0.338425  
      75A      0.342630    76A      0.345694    77A      0.356279  
      78A      0.359820    79A      0.364045    80A      0.367531  
      81A      0.371418    82A      0.373739    83A      0.377735  
      84A      0.383535    85A      0.387965    86A      0.393661  
      87A      0.402398    88A      0.406230    89A      0.413513  
      90A      0.413689    91A      0.423414    92A      0.432447  
      93A      0.433171    94A      0.437266    95A      0.442547  
      96A      0.450013    97A      0.459371    98A      0.462415  
      99A      0.465373   100A      0.470771   101A      0.476576  
     102A      0.480811   103A      0.482672   104A      0.487736  
     105A      0.494317   106A      0.502812   107A      0.512422  
     108A      0.512595   109A      0.517754   110A      0.520885  
     111A      0.526740   112A      0.532556   113A      0.539009  
     114A      0.547667   115A      0.555087   116A      0.556065  
     117A      0.566784   118A      0.569563   119A      0.582789  
     120A      0.583284   121A      0.584834   122A      0.606783  
     123A      0.618633   124A      0.627468   125A      0.638863  
     126A      0.646313   127A      0.648488   128A      0.655238  
     129A      0.658013   130A      0.670506   131A      0.685395  
     132A      0.692350   133A      0.698547   134A      0.704179  
     135A      0.725360   136A      0.750731   137A      0.753299  
     138A      0.769113   139A      0.778580   140A      0.796160  
     141A      0.803295   142A      0.805323   143A      0.817347  
     144A      0.824819   145A      0.830856   146A      0.838413  
     147A      0.843697   148A      0.852460   149A      0.855766  
     150A      0.871649   151A      0.874428   152A      0.878471  
     153A      0.882662   154A      0.886845   155A      0.896038  
     156A      0.898040   157A      0.904584   158A      0.910315  
     159A      0.921661   160A      0.930182   161A      0.931649  
     162A      0.938259   163A      0.954728   164A      0.966210  
     165A      0.970653   166A      0.976768   167A      0.983645  
     168A      0.988753   169A      0.995165   170A      0.998311  
     171A      1.008011   172A      1.015040   173A      1.017229  
     174A      1.025193   175A      1.030637   176A      1.035839  
     177A      1.043027   178A      1.055853   179A      1.063061  
     180A      1.067513   181A      1.078874   182A      1.081801  
     183A      1.094796   184A      1.099026   185A      1.102435  
     186A      1.109423   187A      1.124238   188A      1.127760  
     189A      1.130236   190A      1.141025   191A      1.145438  
     192A      1.160063   193A      1.166165   194A      1.171278  
     195A      1.176669   196A      1.184550   197A      1.186942  
     198A      1.191669   199A      1.197460   200A      1.207640  
     201A      1.217053   202A      1.234349   203A      1.242489  
     204A      1.252765   205A      1.262920   206A      1.270564  
     207A      1.273141   208A      1.276397   209A      1.286303  
     210A      1.302811   211A      1.319556   212A      1.321509  
     213A      1.330197   214A      1.333116   215A      1.349972  
     216A      1.352362   217A      1.361414   218A      1.377486  
     219A      1.387805   220A      1.392729   221A      1.404834  
     222A      1.408522   223A      1.415636   224A      1.424587  
     225A      1.428605   226A      1.439563   227A      1.455383  
     228A      1.460406   229A      1.469664   230A      1.481798  
     231A      1.497051   232A      1.512254   233A      1.517458  
     234A      1.527714   235A      1.539199   236A      1.552778  
     237A      1.563974   238A      1.575518   239A      1.586251  
     240A      1.601923   241A      1.605814   242A      1.620935  
     243A      1.629666   244A      1.642495   245A      1.653970  
     246A      1.656922   247A      1.671358   248A      1.684243  
     249A      1.690420   250A      1.695680   251A      1.705967  
     252A      1.716659   253A      1.724333   254A      1.729445  
     255A      1.742868   256A      1.750960   257A      1.752714  
     258A      1.759269   259A      1.763582   260A      1.777655  
     261A      1.789824   262A      1.799548   263A      1.810361  
     264A      1.824229   265A      1.829204   266A      1.838062  
     267A      1.853281   268A      1.859960   269A      1.867857  
     270A      1.880494   271A      1.883760   272A      1.892173  
     273A      1.907394   274A      1.913736   275A      1.931544  
     276A      1.940304   277A      1.943846   278A      1.963153  
     279A      1.976451   280A      1.987978   281A      1.998249  
     282A      2.008725   283A      2.025178   284A      2.041806  
     285A      2.045500   286A      2.062343   287A      2.072290  
     288A      2.084787   289A      2.091463   290A      2.105170  
     291A      2.110231   292A      2.126769   293A      2.130548  
     294A      2.139103   295A      2.176686   296A      2.186361  
     297A      2.194264   298A      2.202460   299A      2.226059  
     300A      2.241617   301A      2.250835   302A      2.256512  
     303A      2.263936   304A      2.280220   305A      2.299016  
     306A      2.303850   307A      2.326102   308A      2.344429  
     309A      2.348270   310A      2.378469   311A      2.385858  
     312A      2.392642   313A      2.429357   314A      2.438971  
     315A      2.459764   316A      2.465230   317A      2.489930  
     318A      2.504769   319A      2.556541   320A      2.581421  
     321A      2.616256   322A      2.628541   323A      2.656692  
     324A      2.681688   325A      2.712632   326A      2.722761  
     327A      2.751727   328A      2.766205   329A      2.820304  
     330A      2.835659   331A      2.855010   332A      2.896456  
     333A      2.904851   334A      2.933724   335A      2.957257  
     336A      2.967027   337A      2.980464   338A      3.007984  
     339A      3.024234   340A      3.034659   341A      3.049340  
     342A      3.069913   343A      3.128615   344A      3.132518  
     345A      3.177378   346A      3.193027   347A      3.236430  
     348A      3.246853   349A      3.258351   350A      3.293431  
     351A      3.385960   352A      3.435602   353A      3.449546  
     354A      3.471202   355A      3.477050   356A      3.497064  
     357A      3.506912   358A      3.533872   359A      3.544669  
     360A      3.558949   361A      3.606854   362A      3.638060  
     363A      3.643823   364A      3.654247   365A      3.665774  
     366A      3.677314   367A      3.680638   368A      3.697439  
     369A      3.717457   370A      3.729637   371A      3.735260  
     372A      3.752224   373A      3.767906   374A      3.781361  
     375A      3.790441   376A      3.805805   377A      3.818841  
     378A      3.836684   379A      3.844967   380A      3.849099  
     381A      3.872443   382A      3.902938   383A      3.916435  
     384A      3.927027   385A      3.961253   386A      3.969265  
     387A      3.973093   388A      3.982486   389A      3.992275  
     390A      3.996273   391A      4.007982   392A      4.017177  
     393A      4.023172   394A      4.051272   395A      4.069702  
     396A      4.090686   397A      4.107874   398A      4.114306  
     399A      4.123638   400A      4.136034   401A      4.141374  
     402A      4.159284   403A      4.173192   404A      4.174921  
     405A      4.190027   406A      4.205459   407A      4.218148  
     408A      4.229750   409A      4.244499   410A      4.259981  
     411A      4.283295   412A      4.287312   413A      4.307421  
     414A      4.333060   415A      4.360558   416A      4.381902  
     417A      4.388874   418A      4.403464   419A      4.417947  
     420A      4.463705   421A      4.475474   422A      4.491071  
     423A      4.519246   424A      4.549353   425A      4.563540  
     426A      4.581002   427A      4.595260   428A      4.601902  
     429A      4.604489   430A      4.618134   431A      4.642852  
     432A      4.656176   433A      4.666937   434A      4.699771  
     435A      4.714901   436A      4.727406   437A      4.745715  
     438A      4.755135   439A      4.779094   440A      4.814731  
     441A      4.822740   442A      4.838905   443A      4.858194  
     444A      4.870215   445A      4.880783   446A      4.891910  
     447A      4.899119   448A      4.921293   449A      4.935062  
     450A      4.941977   451A      4.965505   452A      4.968000  
     453A      4.983253   454A      5.010352   455A      5.024217  
     456A      5.040766   457A      5.046671   458A      5.060167  
     459A      5.075763   460A      5.107072   461A      5.145837  
     462A      5.149617   463A      5.159349   464A      5.165733  
     465A      5.197095   466A      5.208265   467A      5.230701  
     468A      5.250121   469A      5.281298   470A      5.293239  
     471A      5.312924   472A      5.348924   473A      5.367329  
     474A      5.395113   475A      5.408139   476A      5.424705  
     477A      5.450034   478A      5.455939   479A      5.491979  
     480A      5.493155   481A      5.519237   482A      5.536933  
     483A      5.562536   484A      5.578782   485A      5.593943  
     486A      5.608743   487A      5.630358   488A      5.644417  
     489A      5.652343   490A      5.673079   491A      5.703760  
     492A      5.723836   493A      5.747285   494A      5.764505  
     495A      5.795716   496A      5.833353   497A      5.870099  
     498A      5.882832   499A      6.013075   500A      6.040357  
     501A      6.087250   502A      6.111814   503A      6.134791  
     504A      6.144678   505A      6.201464   506A      6.216705  
     507A      6.235294   508A      6.248499   509A      6.269675  
     510A      6.280996   511A      6.297335   512A      6.327392  
     513A      6.412845   514A      6.467923   515A      6.713235  
     516A      6.730869   517A      6.733452   518A      6.786358  
     519A      6.811672   520A      6.856607   521A      6.887678  
     522A      6.889830   523A      6.962403   524A      6.986116  
     525A      7.011278   526A      7.027437   527A      7.150145  
     528A      7.160601   529A      7.362675   530A      7.366562  
     531A      7.402421   532A      7.415268   533A      7.468593  
     534A      7.529758   535A      7.538140   536A      7.565906  
     537A      7.671125   538A      7.732800   539A      7.872968  
     540A      7.888461   541A      7.945470   542A      7.977438  
     543A      8.254297   544A      8.282314   545A      8.634230  
     546A      8.655801   547A     16.381435   548A     16.448620  
     549A     17.777725   550A     17.977477   551A     18.646023  
     552A     18.890621  

    Final Occupation by Irrep:
              A 
    DOCC [    26 ]
    NA   [    26 ]
    NB   [    26 ]

  @DF-RHF Final Energy:  -308.28825425525781

   => Energetics <=

    Nuclear Repulsion Energy =            251.4459696064319587
    One-Electron Energy =                -918.8259027162599750
    Two-Electron Energy =                 359.0916788545702047
    Total Energy =                       -308.2882542552578116

Computation Completed


Properties will be evaluated at   0.000000,   0.000000,   0.000000 [a0]

Properties computed using the SCF density matrix


 Multipole Moments:

 ------------------------------------------------------------------------------------
     Multipole            Electronic (a.u.)      Nuclear  (a.u.)        Total (a.u.)
 ------------------------------------------------------------------------------------

 L = 1.  Multiply by 2.5417464519 to convert [e a0] to [Debye]
 Dipole X            :         -0.9484328            0.0000189           -0.9484139
 Dipole Y            :          0.0258648           -0.0000019            0.0258630
 Dipole Z            :          0.4517344           -0.0000076            0.4517268
 Magnitude           :                                                    1.0508163

 ------------------------------------------------------------------------------------

*** tstop() called on Moses-MBP.lan at Thu Feb 27 17:41:27 2025
Module time:
	user time   =      89.23 seconds =       1.49 minutes
	system time =       7.00 seconds =       0.12 minutes
	total time  =         12 seconds =       0.20 minutes
Total time:
	user time   =     276.10 seconds =       4.60 minutes
	system time =      23.12 seconds =       0.39 minutes
	total time  =         39 seconds =       0.65 minutes

*** tstart() called on Moses-MBP.lan
*** at Thu Feb 27 17:41:27 2025


  //>>>>>>>>>>>>>>>>>>>>>>>>>>>>>>>>>>>//
  //               DFMP2               //
  //<<<<<<<<<<<<<<<<<<<<<<<<<<<<<<<<<<<//

   => Loading Basis Set <=

    Name: (AUG-CC-PVTZ AUX)
    Role: RIFIT
    Keyword: DF_BASIS_MP2
    atoms 1-2, 10-11 entry C          line   148 file /Users/moseschung/miniconda3/envs/psi4/share/psi4/basis/aug-cc-pvtz-ri.gbs 
    atoms 3, 12      entry O          line   264 file /Users/moseschung/miniconda3/envs/psi4/share/psi4/basis/aug-cc-pvtz-ri.gbs 
    atoms 4-9, 13-18 entry H          line    30 file /Users/moseschung/miniconda3/envs/psi4/share/psi4/basis/aug-cc-pvtz-ri.gbs 

	 --------------------------------------------------------
	                          DF-MP2                         
	      2nd-Order Density-Fitted Moller-Plesset Theory     
	              RMP2 Wavefunction,  10 Threads             
	                                                         
	        Rob Parrish, Justin Turney, Andy Simmonett,      
	           Ed Hohenstein, and C. David Sherrill          
	 --------------------------------------------------------

   => Auxiliary Basis Set <=

  Basis Set: (AUG-CC-PVTZ AUX)
    Blend: AUG-CC-PVTZ-RI
    Number of shells: 336
    Number of basis functions: 1188
    Number of Cartesian functions: 1476
    Spherical Harmonics?: true
    Max angular momentum: 4

	 --------------------------------------------------------
	                 NBF =   552, NAUX =  1188
	 --------------------------------------------------------
	   CLASS    FOCC     OCC    AOCC    AVIR     VIR    FVIR
	   PAIRS       0      26      26     526     526       0
	 --------------------------------------------------------

	-----------------------------------------------------------
	 ==================> DF-MP2 Energies <==================== 
	-----------------------------------------------------------
	 Reference Energy          =    -308.2882542552578116 [Eh]
	 Singles Energy            =      -0.0000000000000000 [Eh]
	 Same-Spin Energy          =      -0.2990404945830073 [Eh]
	 Opposite-Spin Energy      =      -1.0393966094931026 [Eh]
	 Correlation Energy        =      -1.3384371040761098 [Eh]
	 Total Energy              =    -309.6266913593339041 [Eh]
	-----------------------------------------------------------
	 ================> DF-SCS-MP2 Energies <================== 
	-----------------------------------------------------------
	 SCS Same-Spin Scale       =       0.3333333333333333 [-]
	 SCS Opposite-Spin Scale   =       1.2000000000000000 [-]
	 SCS Same-Spin Energy      =      -0.0996801648610024 [Eh]
	 SCS Opposite-Spin Energy  =      -1.2472759313917232 [Eh]
	 SCS Correlation Energy    =      -1.3469560962527256 [Eh]
	 SCS Total Energy          =    -309.6352103515105227 [Eh]
	-----------------------------------------------------------


*** tstop() called on Moses-MBP.lan at Thu Feb 27 17:41:32 2025
Module time:
	user time   =      32.63 seconds =       0.54 minutes
	system time =       2.61 seconds =       0.04 minutes
	total time  =          5 seconds =       0.08 minutes
Total time:
	user time   =     308.73 seconds =       5.15 minutes
	system time =      25.74 seconds =       0.43 minutes
	total time  =         44 seconds =       0.73 minutes

    Psi4 stopped on: Thursday, 27 February 2025 05:41PM
    Psi4 wall time for execution: 0:00:16.62


  //>>>>>>>>>>>>>>>>>>>>>>>>>>>>>>>>>>>//
  //          ManyBody Results         //
  //<<<<<<<<<<<<<<<<<<<<<<<<<<<<<<<<<<<//


   ==> N-Body: Counterpoise Corrected (CP) energies <==

        n-Body     Total Energy            Interaction Energy                          N-body Contribution to Interaction Energy
                   [Eh]                    [Eh]                  [kcal/mol]            [Eh]                  [kcal/mol]
             1  N/A                         0.000000000000        0.000000000000        0.000000000000        0.000000000000
  FULL/RTN   2  N/A                        -0.003255623675       -2.042934698860       -0.003255623675       -2.042934698860


    Psi4 stopped on: Thursday, 27 February 2025 05:41PM
    Psi4 wall time for execution: 0:00:44.84

*** Psi4 exiting successfully. Buy a developer a beer!
