
    -----------------------------------------------------------------------
          Psi4: An Open-Source Ab Initio Electronic Structure Package
                               Psi4 1.9.1 release

                         Git: Rev {} zzzzzzz 


    D. G. A. Smith, L. A. Burns, A. C. Simmonett, R. M. Parrish,
    M. C. Schieber, R. Galvelis, P. Kraus, H. Kruse, R. Di Remigio,
    A. Alenaizan, A. M. James, S. Lehtola, J. P. Misiewicz, M. Scheurer,
    R. A. Shaw, J. B. Schriber, Y. Xie, Z. L. Glick, D. A. Sirianni,
    J. S. O'Brien, J. M. Waldrop, A. Kumar, E. G. Hohenstein,
    B. P. Pritchard, B. R. Brooks, H. F. Schaefer III, A. Yu. Sokolov,
    K. Patkowski, A. E. DePrince III, U. Bozkaya, R. A. King,
    F. A. Evangelista, J. M. Turney, T. D. Crawford, C. D. Sherrill,
    J. Chem. Phys. 152(18) 184108 (2020). https://doi.org/10.1063/5.0006002

                            Additional Code Authors
    E. T. Seidl, C. L. Janssen, E. F. Valeev, M. L. Leininger,
    J. F. Gonthier, R. M. Richard, H. R. McAlexander, M. Saitow, X. Wang,
    P. Verma, M. H. Lechner, A. Jiang, S. Behnle, A. G. Heide,
    M. F. Herbst, and D. L. Poole

             Previous Authors, Complete List of Code Contributors,
                       and Citations for Specific Modules
    https://github.com/psi4/psi4/blob/master/codemeta.json
    https://github.com/psi4/psi4/graphs/contributors
    http://psicode.org/psi4manual/master/introduction.html#citing-psifour

    -----------------------------------------------------------------------


    Psi4 started on: Thursday, 27 February 2025 06:14PM

    Process ID: 32535
    Host:       Moses-MBP.lan
    PSIDATADIR: /Users/moseschung/miniconda3/envs/psi4/share/psi4
    Memory:     500.0 MiB
    Threads:    10
    
  ==> Input File <==

--------------------------------------------------------------------------
MEMORY 10 GB

molecule dimer {
0 1
C    1.233757   0.958573   0.577689
C    1.835635  -0.327214   0.088019
O    3.078182  -0.036974  -0.510572
H    3.484073  -0.853727  -0.806230
H    0.274099   0.763320   1.060038
H    1.077092   1.648204  -0.254963
H    1.899837   1.441573   1.294739
H    1.154875  -0.805792  -0.634716
H    1.954699  -1.027544   0.928295
--
0 1
C   -2.639490   0.875680  -0.242922
C   -1.910773  -0.403057  -0.543748
O   -1.556196  -1.000904   0.685198
H   -1.097021  -1.825559   0.512729
H   -2.944203   1.375097  -1.163798
H   -1.998952   1.555755   0.322279
H   -3.530574   0.675281   0.354545
H   -1.015306  -0.193014  -1.149039
H   -2.549285  -1.074466  -1.135123

units ang
no_reorient
no_com
symmetry c1
}

set {
basis        aug-cc-pVTZ
scf_type     df
}

energy("mp2", bsse_type="cp")
--------------------------------------------------------------------------

  Memory set to   9.313 GiB by Python driver.

Scratch directory: /tmp/

  //>>>>>>>>>>>>>>>>>>>>>>>>>>>>>>>>>>>>>//
  // ManyBody Setup: N-Body Levels [1, 2]//
  //<<<<<<<<<<<<<<<<<<<<<<<<<<<<<<<<<<<<<//

        Number of 1-body computations:     2
        Number of 2-body computations:     1

    -----------------------------------------------------------------------
          Psi4: An Open-Source Ab Initio Electronic Structure Package
                               Psi4 1.9.1 release

                         Git: Rev {} zzzzzzz 


    D. G. A. Smith, L. A. Burns, A. C. Simmonett, R. M. Parrish,
    M. C. Schieber, R. Galvelis, P. Kraus, H. Kruse, R. Di Remigio,
    A. Alenaizan, A. M. James, S. Lehtola, J. P. Misiewicz, M. Scheurer,
    R. A. Shaw, J. B. Schriber, Y. Xie, Z. L. Glick, D. A. Sirianni,
    J. S. O'Brien, J. M. Waldrop, A. Kumar, E. G. Hohenstein,
    B. P. Pritchard, B. R. Brooks, H. F. Schaefer III, A. Yu. Sokolov,
    K. Patkowski, A. E. DePrince III, U. Bozkaya, R. A. King,
    F. A. Evangelista, J. M. Turney, T. D. Crawford, C. D. Sherrill,
    J. Chem. Phys. 152(18) 184108 (2020). https://doi.org/10.1063/5.0006002

                            Additional Code Authors
    E. T. Seidl, C. L. Janssen, E. F. Valeev, M. L. Leininger,
    J. F. Gonthier, R. M. Richard, H. R. McAlexander, M. Saitow, X. Wang,
    P. Verma, M. H. Lechner, A. Jiang, S. Behnle, A. G. Heide,
    M. F. Herbst, and D. L. Poole

             Previous Authors, Complete List of Code Contributors,
                       and Citations for Specific Modules
    https://github.com/psi4/psi4/blob/master/codemeta.json
    https://github.com/psi4/psi4/graphs/contributors
    http://psicode.org/psi4manual/master/introduction.html#citing-psifour

    -----------------------------------------------------------------------


    Psi4 started on: Thursday, 27 February 2025 06:14PM

    Process ID: 32535
    Host:       Moses-MBP.lan
    PSIDATADIR: /Users/moseschung/miniconda3/envs/psi4/share/psi4
    Memory:     9.3 GiB
    Threads:    10
    
  ==> Input QCSchema <==

--------------------------------------------------------------------------
{'driver': 'energy',
 'extras': {'psiapi': True, 'wfn_qcvars_only': True},
 'id': None,
 'keywords': {'SCF_TYPE': 'DF', 'function_kwargs': {}},
 'model': {'basis': 'aug-cc-pvtz', 'method': 'mp2'},
 'molecule': {'atom_labels': ['', '', '', '', '', '', '', '', '', '', '', '', '', '', '', '', '', ''],
              'atomic_numbers': [6, 6, 8, 1, 1, 1, 1, 1, 1, 6, 6, 8, 1, 1, 1, 1, 1, 1],
              'extras': {},
              'fix_com': True,
              'fix_orientation': True,
              'fix_symmetry': 'c1',
              'fragment_charges': [0.0, 0.0],
              'fragment_multiplicities': [1, 1],
              'fragments': [[0, 1, 2, 3, 4, 5, 6, 7, 8], [9, 10, 11, 12, 13, 14, 15, 16, 17]],
              'geometry': [2.331462835366473, 1.8114404412584868, 1.0916739956896073, 3.46884741630478,
                           -0.6183448444155578, 0.16633180383667256, 5.816920944314028, -0.06987073376267773,
                           -0.9648412473272543, 6.5839437711022315, -1.6133102159087354, -1.5235538941278648,
                           0.5179720412618652, 1.4424657460844694, 2.0031815025780655, 2.035408891921623,
                           3.114654158884094, -0.4818102421251042, 3.5901716130114236, 2.7241781598546178,
                           2.446702113949143, 2.1823974591381097, -1.5227261940849142, -1.1994394074460908,
                           3.693845767706291, -1.9417767418574385, 1.7542233136318746, -4.987913210884683,
                           1.6547953735409107, -0.45905604984846654, -3.61083765791943, -0.7616673429486557,
                           -1.027534801265443, -2.94078423753297, -1.8914344378752421, 1.2948365617114526,
                           -2.073069243875872, -3.449806535864667, 0.9689173865798667, -5.563737327751314,
                           2.5985567259386833, -2.1992594853555696, -3.777471817936177, 2.9399508683116435,
                           0.6090190459864232, -6.671817925662146, 1.2760961477252877, 0.6699929491504457,
                           -1.9186502735340858, -0.36474359837911724, -2.1713690174699374, -4.8174504657377595,
                           -2.0304464711161705, -2.1450715887080665],
              'mass_numbers': [12, 12, 16, 1, 1, 1, 1, 1, 1, 12, 12, 16, 1, 1, 1, 1, 1, 1],
              'masses': [12.0, 12.0, 15.99491461957, 1.00782503223, 1.00782503223, 1.00782503223, 1.00782503223,
                         1.00782503223, 1.00782503223, 12.0, 12.0, 15.99491461957, 1.00782503223, 1.00782503223,
                         1.00782503223, 1.00782503223, 1.00782503223, 1.00782503223],
              'molecular_charge': 0.0,
              'molecular_multiplicity': 1,
              'name': 'dimer',
              'provenance': {'creator': 'QCElemental',
                             'routine': 'qcelemental.molparse.from_string',
                             'version': '0.29.0'},
              'real': [False, False, False, False, False, False, False, False, False, True, True, True, True, True,
                       True, True, True, True],
              'schema_name': 'qcschema_molecule',
              'schema_version': 2,
              'symbols': ['C', 'C', 'O', 'H', 'H', 'H', 'H', 'H', 'H', 'C', 'C', 'O', 'H', 'H', 'H', 'H', 'H', 'H'],
              'validated': True},
 'protocols': {'stdout': True},
 'provenance': {'creator': 'QCElemental', 'routine': 'qcelemental.models.results', 'version': '0.29.0'},
 'schema_name': 'qcschema_input',
 'schema_version': 1}
--------------------------------------------------------------------------

Scratch directory: /tmp/
   => Libint2 <=

    Primary   basis highest AM E, G, H:  6, 6, 3
    Auxiliary basis highest AM E, G, H:  7, 7, 4
    Onebody   basis highest AM E, G, H:  -, -, -
    Solid Harmonics ordering:            Gaussian

*** tstart() called on Moses-MBP.lan
*** at Thu Feb 27 18:14:38 2025

   => Loading Basis Set <=

    Name: AUG-CC-PVTZ
    Role: ORBITAL
    Keyword: BASIS
    atoms 1-2, 10-11 entry C          line   239 file /Users/moseschung/miniconda3/envs/psi4/share/psi4/basis/aug-cc-pvtz.gbs 
    atoms 3, 12      entry O          line   331 file /Users/moseschung/miniconda3/envs/psi4/share/psi4/basis/aug-cc-pvtz.gbs 
    atoms 4-9, 13-18 entry H          line    40 file /Users/moseschung/miniconda3/envs/psi4/share/psi4/basis/aug-cc-pvtz.gbs 


         ---------------------------------------------------------
                                   SCF
               by Justin Turney, Rob Parrish, Andy Simmonett
                          and Daniel G. A. Smith
                              RHF Reference
                       10 Threads,   9536 MiB Core
         ---------------------------------------------------------

  ==> Geometry <==

    Molecular point group: c1
    Full point group: C1

    Geometry (in Bohr), charge = 0, multiplicity = 1:

       Center              X                  Y                   Z               Mass       
    ------------   -----------------  -----------------  -----------------  -----------------
      Gh(C)           2.331462835366     1.811440441258     1.091673995690    12.000000000000
      Gh(C)           3.468847416305    -0.618344844416     0.166331803837    12.000000000000
      Gh(O)           5.816920944314    -0.069870733763    -0.964841247327    15.994914619570
      Gh(H)           6.583943771102    -1.613310215909    -1.523553894128     1.007825032230
      Gh(H)           0.517972041262     1.442465746084     2.003181502578     1.007825032230
      Gh(H)           2.035408891922     3.114654158884    -0.481810242125     1.007825032230
      Gh(H)           3.590171613011     2.724178159855     2.446702113949     1.007825032230
      Gh(H)           2.182397459138    -1.522726194085    -1.199439407446     1.007825032230
      Gh(H)           3.693845767706    -1.941776741857     1.754223313632     1.007825032230
         C           -4.987913210885     1.654795373541    -0.459056049848    12.000000000000
         C           -3.610837657919    -0.761667342949    -1.027534801265    12.000000000000
         O           -2.940784237533    -1.891434437875     1.294836561711    15.994914619570
         H           -2.073069243876    -3.449806535865     0.968917386580     1.007825032230
         H           -5.563737327751     2.598556725939    -2.199259485356     1.007825032230
         H           -3.777471817936     2.939950868312     0.609019045986     1.007825032230
         H           -6.671817925662     1.276096147725     0.669992949150     1.007825032230
         H           -1.918650273534    -0.364743598379    -2.171369017470     1.007825032230
         H           -4.817450465738    -2.030446471116    -2.145071588708     1.007825032230

  Running in c1 symmetry.

  Rotational constants: A =      0.19621  B =      0.03648  C =      0.03442 [cm^-1]
  Rotational constants: A =   5882.25072  B =   1093.60415  C =   1031.75830 [MHz]
  Nuclear repulsion =   82.253870317390110

  Charge       = 0
  Multiplicity = 1
  Electrons    = 26
  Nalpha       = 13
  Nbeta        = 13

  ==> Algorithm <==

  SCF Algorithm Type is DF.
  DIIS enabled.
  MOM disabled.
  Fractional occupation disabled.
  Guess Type is SAD.
  Energy threshold   = 1.00e-08
  Density threshold  = 1.00e-08
  Integral threshold = 1.00e-12

  ==> Primary Basis <==

  Basis Set: AUG-CC-PVTZ
    Blend: AUG-CC-PVTZ
    Number of shells: 192
    Number of basis functions: 552
    Number of Cartesian functions: 630
    Spherical Harmonics?: true
    Max angular momentum: 3

   => Loading Basis Set <=

    Name: (AUG-CC-PVTZ AUX)
    Role: JKFIT
    Keyword: DF_BASIS_SCF
    atoms 1-2, 10-11 entry C          line   162 file /Users/moseschung/miniconda3/envs/psi4/share/psi4/basis/aug-cc-pvtz-jkfit.gbs 
    atoms 3, 12      entry O          line   286 file /Users/moseschung/miniconda3/envs/psi4/share/psi4/basis/aug-cc-pvtz-jkfit.gbs 
    atoms 4-9, 13-18 entry H          line    70 file /Users/moseschung/miniconda3/envs/psi4/share/psi4/basis/aug-cc-pvtz-jkfit.gbs 

  ==> Integral Setup <==

  DFHelper Memory: AOs need 2.594 GiB; user supplied 6.985 GiB. 
  Using in-core AOs.

  ==> MemDFJK: Density-Fitted J/K Matrices <==

    J tasked:                   Yes
    K tasked:                   Yes
    wK tasked:                   No
    OpenMP threads:              10
    Memory [MiB]:              7152
    Algorithm:                 Core
    Schwarz Cutoff:           1E-12
    Mask sparsity (%):       6.3826
    Fitting Condition:        1E-10

   => Auxiliary Basis Set <=

  Basis Set: (AUG-CC-PVTZ AUX)
    Blend: AUG-CC-PVTZ-JKFIT
    Number of shells: 348
    Number of basis functions: 1176
    Number of Cartesian functions: 1446
    Spherical Harmonics?: true
    Max angular momentum: 4

  Minimum eigenvalue in the overlap matrix is 6.9806704485E-06.
  Reciprocal condition number of the overlap matrix is 3.7030240289E-07.
    Using symmetric orthogonalization.

  ==> Pre-Iterations <==

  SCF Guess: Superposition of Atomic Densities via on-the-fly atomic UHF (no occupation information).

   -------------------------
    Irrep   Nso     Nmo    
   -------------------------
     A        552     552 
   -------------------------
    Total     552     552
   -------------------------

  ==> Iterations <==

                           Total Energy        Delta E     RMS |[F,P]|

   @DF-RHF iter SAD:  -153.44918233161798   -1.53449e+02   0.00000e+00 
   @DF-RHF iter   1:  -153.99868066223291   -5.49498e-01   9.60903e-04 DIIS/ADIIS
   @DF-RHF iter   2:  -154.11083082767240   -1.12150e-01   5.35113e-04 DIIS/ADIIS
   @DF-RHF iter   3:  -154.14385620412739   -3.30254e-02   8.44740e-05 DIIS
   @DF-RHF iter   4:  -154.14545442939030   -1.59823e-03   3.23840e-05 DIIS
   @DF-RHF iter   5:  -154.14563887463888   -1.84445e-04   5.76599e-06 DIIS
   @DF-RHF iter   6:  -154.14564849119941   -9.61656e-06   1.27837e-06 DIIS
   @DF-RHF iter   7:  -154.14564904842644   -5.57227e-07   3.93049e-07 DIIS
   @DF-RHF iter   8:  -154.14564909248855   -4.40621e-08   1.05201e-07 DIIS
   @DF-RHF iter   9:  -154.14564909669420   -4.20565e-09   2.53241e-08 DIIS
   @DF-RHF iter  10:  -154.14564909695807   -2.63867e-10   4.81931e-09 DIIS
  Energy and wave function converged.


  ==> Post-Iterations <==

    Orbital Energies [Eh]
    ---------------------

    Doubly Occupied:                                                      

       1A    -20.555747     2A    -11.273827     3A    -11.210757  
       4A     -1.361594     5A     -1.014111     6A     -0.833138  
       7A     -0.703174     8A     -0.645539     9A     -0.573824  
      10A     -0.533533    11A     -0.524352    12A     -0.489165  
      13A     -0.440037  

    Virtual:                                                              

      14A      0.021120    15A      0.032837    16A      0.035622  
      17A      0.039152    18A      0.049851    19A      0.053436  
      20A      0.055164    21A      0.062382    22A      0.069248  
      23A      0.073792    24A      0.078515    25A      0.086130  
      26A      0.096093    27A      0.108421    28A      0.111789  
      29A      0.122729    30A      0.123682    31A      0.126014  
      32A      0.133328    33A      0.140343    34A      0.144929  
      35A      0.148635    36A      0.151169    37A      0.158606  
      38A      0.161895    39A      0.171237    40A      0.177023  
      41A      0.186318    42A      0.199017    43A      0.201453  
      44A      0.204725    45A      0.213061    46A      0.222036  
      47A      0.235057    48A      0.242198    49A      0.254737  
      50A      0.261971    51A      0.269385    52A      0.273156  
      53A      0.282097    54A      0.289194    55A      0.291137  
      56A      0.296166    57A      0.301218    58A      0.309783  
      59A      0.319100    60A      0.325599    61A      0.331030  
      62A      0.331236    63A      0.333591    64A      0.342776  
      65A      0.347717    66A      0.353917    67A      0.358265  
      68A      0.364816    69A      0.365886    70A      0.373674  
      71A      0.378457    72A      0.385994    73A      0.391211  
      74A      0.401679    75A      0.408996    76A      0.411061  
      77A      0.416386    78A      0.424112    79A      0.432328  
      80A      0.436761    81A      0.443595    82A      0.444714  
      83A      0.454662    84A      0.461576    85A      0.465486  
      86A      0.474157    87A      0.474307    88A      0.479511  
      89A      0.484845    90A      0.490654    91A      0.496483  
      92A      0.500456    93A      0.506942    94A      0.508551  
      95A      0.516125    96A      0.523844    97A      0.528717  
      98A      0.536214    99A      0.541491   100A      0.546460  
     101A      0.563018   102A      0.567418   103A      0.569856  
     104A      0.576689   105A      0.587014   106A      0.592459  
     107A      0.604708   108A      0.610142   109A      0.613369  
     110A      0.622242   111A      0.629153   112A      0.634568  
     113A      0.640868   114A      0.645525   115A      0.653354  
     116A      0.659145   117A      0.661474   118A      0.677258  
     119A      0.687896   120A      0.692625   121A      0.707716  
     122A      0.722727   123A      0.726596   124A      0.745588  
     125A      0.749495   126A      0.762915   127A      0.775951  
     128A      0.798760   129A      0.807923   130A      0.820438  
     131A      0.826076   132A      0.839110   133A      0.840510  
     134A      0.857080   135A      0.861550   136A      0.867833  
     137A      0.874483   138A      0.880158   139A      0.897396  
     140A      0.898496   141A      0.912975   142A      0.920297  
     143A      0.926197   144A      0.930790   145A      0.935870  
     146A      0.941392   147A      0.951528   148A      0.958238  
     149A      0.967132   150A      0.979170   151A      0.990728  
     152A      0.997272   153A      1.000700   154A      1.006244  
     155A      1.016354   156A      1.025981   157A      1.027617  
     158A      1.043495   159A      1.047009   160A      1.054036  
     161A      1.057891   162A      1.060375   163A      1.066931  
     164A      1.075163   165A      1.082704   166A      1.085688  
     167A      1.096108   168A      1.105715   169A      1.111608  
     170A      1.118051   171A      1.122349   172A      1.130391  
     173A      1.136871   174A      1.150550   175A      1.154699  
     176A      1.157098   177A      1.164310   178A      1.169985  
     179A      1.175706   180A      1.194032   181A      1.199389  
     182A      1.201298   183A      1.210161   184A      1.210938  
     185A      1.223807   186A      1.231532   187A      1.238524  
     188A      1.245560   189A      1.248082   190A      1.254279  
     191A      1.259752   192A      1.273788   193A      1.277341  
     194A      1.285410   195A      1.292060   196A      1.295315  
     197A      1.314875   198A      1.318349   199A      1.331447  
     200A      1.338694   201A      1.341904   202A      1.353106  
     203A      1.361472   204A      1.376606   205A      1.378871  
     206A      1.388113   207A      1.412580   208A      1.418600  
     209A      1.432037   210A      1.445641   211A      1.450127  
     212A      1.466323   213A      1.474753   214A      1.486077  
     215A      1.490591   216A      1.495571   217A      1.501000  
     218A      1.513915   219A      1.522653   220A      1.531985  
     221A      1.546821   222A      1.549567   223A      1.557105  
     224A      1.575145   225A      1.579952   226A      1.591008  
     227A      1.596791   228A      1.611381   229A      1.623069  
     230A      1.628244   231A      1.643012   232A      1.650915  
     233A      1.660113   234A      1.672870   235A      1.683732  
     236A      1.687217   237A      1.693267   238A      1.706361  
     239A      1.712724   240A      1.728692   241A      1.745318  
     242A      1.748947   243A      1.766524   244A      1.775819  
     245A      1.790563   246A      1.800120   247A      1.813565  
     248A      1.816148   249A      1.836649   250A      1.842979  
     251A      1.850830   252A      1.863266   253A      1.873015  
     254A      1.884883   255A      1.898182   256A      1.913781  
     257A      1.920761   258A      1.936948   259A      1.943674  
     260A      1.959556   261A      1.974501   262A      1.985802  
     263A      1.987099   264A      1.994907   265A      2.006258  
     266A      2.021543   267A      2.033337   268A      2.058121  
     269A      2.060578   270A      2.066054   271A      2.077510  
     272A      2.100621   273A      2.110727   274A      2.122153  
     275A      2.128683   276A      2.137401   277A      2.141188  
     278A      2.168166   279A      2.182489   280A      2.201812  
     281A      2.209507   282A      2.223873   283A      2.227771  
     284A      2.235613   285A      2.261603   286A      2.271175  
     287A      2.275095   288A      2.279779   289A      2.309306  
     290A      2.312247   291A      2.332570   292A      2.349100  
     293A      2.363849   294A      2.381029   295A      2.401862  
     296A      2.422411   297A      2.434209   298A      2.453071  
     299A      2.471170   300A      2.485799   301A      2.501699  
     302A      2.516143   303A      2.538553   304A      2.590012  
     305A      2.601250   306A      2.611876   307A      2.628461  
     308A      2.672531   309A      2.681647   310A      2.705402  
     311A      2.719858   312A      2.731077   313A      2.736454  
     314A      2.747681   315A      2.764913   316A      2.782499  
     317A      2.797567   318A      2.813676   319A      2.828682  
     320A      2.852079   321A      2.863657   322A      2.892032  
     323A      2.929647   324A      2.935940   325A      2.969459  
     326A      3.007377   327A      3.011526   328A      3.028341  
     329A      3.049008   330A      3.091586   331A      3.115632  
     332A      3.120009   333A      3.139198   334A      3.178452  
     335A      3.209407   336A      3.229615   337A      3.265394  
     338A      3.290018   339A      3.348204   340A      3.379500  
     341A      3.433189   342A      3.472611   343A      3.483151  
     344A      3.493588   345A      3.537378   346A      3.546985  
     347A      3.568209   348A      3.614498   349A      3.623586  
     350A      3.640556   351A      3.669246   352A      3.679432  
     353A      3.702265   354A      3.726106   355A      3.755884  
     356A      3.765939   357A      3.774952   358A      3.814380  
     359A      3.832534   360A      3.844045   361A      3.872056  
     362A      3.890410   363A      3.940922   364A      3.971846  
     365A      3.987277   366A      3.992904   367A      4.019477  
     368A      4.024200   369A      4.045282   370A      4.080224  
     371A      4.090320   372A      4.105258   373A      4.137492  
     374A      4.147433   375A      4.155914   376A      4.161750  
     377A      4.178432   378A      4.185673   379A      4.209007  
     380A      4.224722   381A      4.228625   382A      4.243894  
     383A      4.269171   384A      4.286684   385A      4.302240  
     386A      4.340739   387A      4.348581   388A      4.357028  
     389A      4.379356   390A      4.401796   391A      4.403332  
     392A      4.424981   393A      4.457943   394A      4.469411  
     395A      4.487213   396A      4.497436   397A      4.528113  
     398A      4.541784   399A      4.552282   400A      4.556467  
     401A      4.580663   402A      4.590996   403A      4.606970  
     404A      4.622169   405A      4.629622   406A      4.656621  
     407A      4.666454   408A      4.670587   409A      4.688515  
     410A      4.709013   411A      4.714916   412A      4.739088  
     413A      4.764603   414A      4.776578   415A      4.800367  
     416A      4.827158   417A      4.836950   418A      4.844069  
     419A      4.859970   420A      4.874194   421A      4.893725  
     422A      4.914277   423A      4.931129   424A      4.937477  
     425A      4.955681   426A      4.969937   427A      4.983966  
     428A      5.006840   429A      5.027272   430A      5.043292  
     431A      5.049705   432A      5.060631   433A      5.087328  
     434A      5.100123   435A      5.106865   436A      5.129192  
     437A      5.135076   438A      5.155826   439A      5.181116  
     440A      5.203004   441A      5.212830   442A      5.236056  
     443A      5.256905   444A      5.272449   445A      5.286602  
     446A      5.328720   447A      5.349631   448A      5.351610  
     449A      5.369634   450A      5.390013   451A      5.390601  
     452A      5.423624   453A      5.453772   454A      5.463160  
     455A      5.490444   456A      5.512962   457A      5.539369  
     458A      5.546790   459A      5.558140   460A      5.567396  
     461A      5.575013   462A      5.605109   463A      5.608472  
     464A      5.636288   465A      5.646621   466A      5.682068  
     467A      5.714659   468A      5.721303   469A      5.746040  
     470A      5.759281   471A      5.764612   472A      5.791860  
     473A      5.822917   474A      5.845551   475A      5.852693  
     476A      5.892734   477A      5.947550   478A      6.005765  
     479A      6.021092   480A      6.033047   481A      6.071277  
     482A      6.082703   483A      6.114708   484A      6.142076  
     485A      6.184244   486A      6.198669   487A      6.208856  
     488A      6.235612   489A      6.274400   490A      6.303411  
     491A      6.323928   492A      6.339180   493A      6.438921  
     494A      6.496144   495A      6.547176   496A      6.732976  
     497A      6.764125   498A      6.806965   499A      6.811113  
     500A      6.873380   501A      6.893208   502A      6.967177  
     503A      6.995509   504A      7.012419   505A      7.066025  
     506A      7.098759   507A      7.151871   508A      7.205879  
     509A      7.263141   510A      7.303581   511A      7.379250  
     512A      7.422807   513A      7.554466   514A      7.565356  
     515A      7.641704   516A      7.732881   517A      7.834979  
     518A      7.849152   519A      7.860762   520A      7.868446  
     521A      7.889208   522A      7.913534   523A      7.996050  
     524A      8.005268   525A      8.100691   526A      8.177298  
     527A      8.192519   528A      8.300799   529A      8.364695  
     530A      8.395486   531A      8.414070   532A      8.584679  
     533A      8.651773   534A      8.875157   535A      9.079887  
     536A      9.918368   537A     10.089289   538A     10.370403  
     539A     10.389305   540A     10.428417   541A     10.817020  
     542A     11.091645   543A     11.910874   544A     12.268166  
     545A     13.284972   546A     14.128394   547A     16.343142  
     548A     18.106120   549A     18.464277   550A     53.486266  
     551A     54.507177   552A     65.884891  

    Final Occupation by Irrep:
              A 
    DOCC [    13 ]
    NA   [    13 ]
    NB   [    13 ]

  @DF-RHF Final Energy:  -154.14564909695807

   => Energetics <=

    Nuclear Repulsion Energy =             82.2538703173901098
    One-Electron Energy =                -372.4814387351693199
    Two-Electron Energy =                 136.0819193208211288
    Total Energy =                       -154.1456490969580670

Computation Completed


Properties will be evaluated at   0.000000,   0.000000,   0.000000 [a0]

Properties computed using the SCF density matrix


 Multipole Moments:

 ------------------------------------------------------------------------------------
     Multipole            Electronic (a.u.)      Nuclear  (a.u.)        Total (a.u.)
 ------------------------------------------------------------------------------------

 L = 1.  Multiply by 2.5417464519 to convert [e a0] to [Debye]
 Dipole X            :        100.0626327          -99.9409762            0.1216566
 Dipole Y            :          8.5657398           -8.8031002           -0.2373604
 Dipole Z            :          2.2275043           -2.8286233           -0.6011190
 Magnitude           :                                                    0.6576354

 ------------------------------------------------------------------------------------

*** tstop() called on Moses-MBP.lan at Thu Feb 27 18:14:47 2025
Module time:
	user time   =      71.15 seconds =       1.19 minutes
	system time =       5.48 seconds =       0.09 minutes
	total time  =          9 seconds =       0.15 minutes
Total time:
	user time   =      71.15 seconds =       1.19 minutes
	system time =       5.48 seconds =       0.09 minutes
	total time  =          9 seconds =       0.15 minutes

*** tstart() called on Moses-MBP.lan
*** at Thu Feb 27 18:14:47 2025


  //>>>>>>>>>>>>>>>>>>>>>>>>>>>>>>>>>>>//
  //               DFMP2               //
  //<<<<<<<<<<<<<<<<<<<<<<<<<<<<<<<<<<<//

   => Loading Basis Set <=

    Name: (AUG-CC-PVTZ AUX)
    Role: RIFIT
    Keyword: DF_BASIS_MP2
    atoms 1-2, 10-11 entry C          line   148 file /Users/moseschung/miniconda3/envs/psi4/share/psi4/basis/aug-cc-pvtz-ri.gbs 
    atoms 3, 12      entry O          line   264 file /Users/moseschung/miniconda3/envs/psi4/share/psi4/basis/aug-cc-pvtz-ri.gbs 
    atoms 4-9, 13-18 entry H          line    30 file /Users/moseschung/miniconda3/envs/psi4/share/psi4/basis/aug-cc-pvtz-ri.gbs 

	 --------------------------------------------------------
	                          DF-MP2                         
	      2nd-Order Density-Fitted Moller-Plesset Theory     
	              RMP2 Wavefunction,  10 Threads             
	                                                         
	        Rob Parrish, Justin Turney, Andy Simmonett,      
	           Ed Hohenstein, and C. David Sherrill          
	 --------------------------------------------------------

   => Auxiliary Basis Set <=

  Basis Set: (AUG-CC-PVTZ AUX)
    Blend: AUG-CC-PVTZ-RI
    Number of shells: 336
    Number of basis functions: 1188
    Number of Cartesian functions: 1476
    Spherical Harmonics?: true
    Max angular momentum: 4

	 --------------------------------------------------------
	                 NBF =   552, NAUX =  1188
	 --------------------------------------------------------
	   CLASS    FOCC     OCC    AOCC    AVIR     VIR    FVIR
	   PAIRS       0      13      13     539     539       0
	 --------------------------------------------------------

	-----------------------------------------------------------
	 ==================> DF-MP2 Energies <==================== 
	-----------------------------------------------------------
	 Reference Energy          =    -154.1456490969580670 [Eh]
	 Singles Energy            =      -0.0000000000000000 [Eh]
	 Same-Spin Energy          =      -0.1481450724200299 [Eh]
	 Opposite-Spin Energy      =      -0.5183493959040267 [Eh]
	 Correlation Energy        =      -0.6664944683240566 [Eh]
	 Total Energy              =    -154.8121435652821276 [Eh]
	-----------------------------------------------------------
	 ================> DF-SCS-MP2 Energies <================== 
	-----------------------------------------------------------
	 SCS Same-Spin Scale       =       0.3333333333333333 [-]
	 SCS Opposite-Spin Scale   =       1.2000000000000000 [-]
	 SCS Same-Spin Energy      =      -0.0493816908066766 [Eh]
	 SCS Opposite-Spin Energy  =      -0.6220192750848320 [Eh]
	 SCS Correlation Energy    =      -0.6714009658915087 [Eh]
	 SCS Total Energy          =    -154.8170500628495745 [Eh]
	-----------------------------------------------------------


*** tstop() called on Moses-MBP.lan at Thu Feb 27 18:14:50 2025
Module time:
	user time   =      20.55 seconds =       0.34 minutes
	system time =       2.48 seconds =       0.04 minutes
	total time  =          3 seconds =       0.05 minutes
Total time:
	user time   =      91.71 seconds =       1.53 minutes
	system time =       7.96 seconds =       0.13 minutes
	total time  =         12 seconds =       0.20 minutes

    Psi4 stopped on: Thursday, 27 February 2025 06:14PM
    Psi4 wall time for execution: 0:00:12.52


    -----------------------------------------------------------------------
          Psi4: An Open-Source Ab Initio Electronic Structure Package
                               Psi4 1.9.1 release

                         Git: Rev {} zzzzzzz 


    D. G. A. Smith, L. A. Burns, A. C. Simmonett, R. M. Parrish,
    M. C. Schieber, R. Galvelis, P. Kraus, H. Kruse, R. Di Remigio,
    A. Alenaizan, A. M. James, S. Lehtola, J. P. Misiewicz, M. Scheurer,
    R. A. Shaw, J. B. Schriber, Y. Xie, Z. L. Glick, D. A. Sirianni,
    J. S. O'Brien, J. M. Waldrop, A. Kumar, E. G. Hohenstein,
    B. P. Pritchard, B. R. Brooks, H. F. Schaefer III, A. Yu. Sokolov,
    K. Patkowski, A. E. DePrince III, U. Bozkaya, R. A. King,
    F. A. Evangelista, J. M. Turney, T. D. Crawford, C. D. Sherrill,
    J. Chem. Phys. 152(18) 184108 (2020). https://doi.org/10.1063/5.0006002

                            Additional Code Authors
    E. T. Seidl, C. L. Janssen, E. F. Valeev, M. L. Leininger,
    J. F. Gonthier, R. M. Richard, H. R. McAlexander, M. Saitow, X. Wang,
    P. Verma, M. H. Lechner, A. Jiang, S. Behnle, A. G. Heide,
    M. F. Herbst, and D. L. Poole

             Previous Authors, Complete List of Code Contributors,
                       and Citations for Specific Modules
    https://github.com/psi4/psi4/blob/master/codemeta.json
    https://github.com/psi4/psi4/graphs/contributors
    http://psicode.org/psi4manual/master/introduction.html#citing-psifour

    -----------------------------------------------------------------------


    Psi4 started on: Thursday, 27 February 2025 06:14PM

    Process ID: 32535
    Host:       Moses-MBP.lan
    PSIDATADIR: /Users/moseschung/miniconda3/envs/psi4/share/psi4
    Memory:     9.3 GiB
    Threads:    10
    
  ==> Input QCSchema <==

--------------------------------------------------------------------------
{'driver': 'energy',
 'extras': {'psiapi': True, 'wfn_qcvars_only': True},
 'id': None,
 'keywords': {'SCF_TYPE': 'DF', 'function_kwargs': {}},
 'model': {'basis': 'aug-cc-pvtz', 'method': 'mp2'},
 'molecule': {'atom_labels': ['', '', '', '', '', '', '', '', '', '', '', '', '', '', '', '', '', ''],
              'atomic_numbers': [6, 6, 8, 1, 1, 1, 1, 1, 1, 6, 6, 8, 1, 1, 1, 1, 1, 1],
              'extras': {},
              'fix_com': True,
              'fix_orientation': True,
              'fix_symmetry': 'c1',
              'fragment_charges': [0.0, 0.0],
              'fragment_multiplicities': [1, 1],
              'fragments': [[0, 1, 2, 3, 4, 5, 6, 7, 8], [9, 10, 11, 12, 13, 14, 15, 16, 17]],
              'geometry': [2.331462835366473, 1.8114404412584868, 1.0916739956896073, 3.46884741630478,
                           -0.6183448444155578, 0.16633180383667256, 5.816920944314028, -0.06987073376267773,
                           -0.9648412473272543, 6.5839437711022315, -1.6133102159087354, -1.5235538941278648,
                           0.5179720412618652, 1.4424657460844694, 2.0031815025780655, 2.035408891921623,
                           3.114654158884094, -0.4818102421251042, 3.5901716130114236, 2.7241781598546178,
                           2.446702113949143, 2.1823974591381097, -1.5227261940849142, -1.1994394074460908,
                           3.693845767706291, -1.9417767418574385, 1.7542233136318746, -4.987913210884683,
                           1.6547953735409107, -0.45905604984846654, -3.61083765791943, -0.7616673429486557,
                           -1.027534801265443, -2.94078423753297, -1.8914344378752421, 1.2948365617114526,
                           -2.073069243875872, -3.449806535864667, 0.9689173865798667, -5.563737327751314,
                           2.5985567259386833, -2.1992594853555696, -3.777471817936177, 2.9399508683116435,
                           0.6090190459864232, -6.671817925662146, 1.2760961477252877, 0.6699929491504457,
                           -1.9186502735340858, -0.36474359837911724, -2.1713690174699374, -4.8174504657377595,
                           -2.0304464711161705, -2.1450715887080665],
              'mass_numbers': [12, 12, 16, 1, 1, 1, 1, 1, 1, 12, 12, 16, 1, 1, 1, 1, 1, 1],
              'masses': [12.0, 12.0, 15.99491461957, 1.00782503223, 1.00782503223, 1.00782503223, 1.00782503223,
                         1.00782503223, 1.00782503223, 12.0, 12.0, 15.99491461957, 1.00782503223, 1.00782503223,
                         1.00782503223, 1.00782503223, 1.00782503223, 1.00782503223],
              'molecular_charge': 0.0,
              'molecular_multiplicity': 1,
              'name': 'dimer',
              'provenance': {'creator': 'QCElemental',
                             'routine': 'qcelemental.molparse.from_string',
                             'version': '0.29.0'},
              'real': [True, True, True, True, True, True, True, True, True, False, False, False, False, False, False,
                       False, False, False],
              'schema_name': 'qcschema_molecule',
              'schema_version': 2,
              'symbols': ['C', 'C', 'O', 'H', 'H', 'H', 'H', 'H', 'H', 'C', 'C', 'O', 'H', 'H', 'H', 'H', 'H', 'H'],
              'validated': True},
 'protocols': {'stdout': True},
 'provenance': {'creator': 'QCElemental', 'routine': 'qcelemental.models.results', 'version': '0.29.0'},
 'schema_name': 'qcschema_input',
 'schema_version': 1}
--------------------------------------------------------------------------

Scratch directory: /tmp/
   => Libint2 <=

    Primary   basis highest AM E, G, H:  6, 6, 3
    Auxiliary basis highest AM E, G, H:  7, 7, 4
    Onebody   basis highest AM E, G, H:  -, -, -
    Solid Harmonics ordering:            Gaussian

*** tstart() called on Moses-MBP.lan
*** at Thu Feb 27 18:14:50 2025

   => Loading Basis Set <=

    Name: AUG-CC-PVTZ
    Role: ORBITAL
    Keyword: BASIS
    atoms 1-2, 10-11 entry C          line   239 file /Users/moseschung/miniconda3/envs/psi4/share/psi4/basis/aug-cc-pvtz.gbs 
    atoms 3, 12      entry O          line   331 file /Users/moseschung/miniconda3/envs/psi4/share/psi4/basis/aug-cc-pvtz.gbs 
    atoms 4-9, 13-18 entry H          line    40 file /Users/moseschung/miniconda3/envs/psi4/share/psi4/basis/aug-cc-pvtz.gbs 


         ---------------------------------------------------------
                                   SCF
               by Justin Turney, Rob Parrish, Andy Simmonett
                          and Daniel G. A. Smith
                              RHF Reference
                       10 Threads,   9536 MiB Core
         ---------------------------------------------------------

  ==> Geometry <==

    Molecular point group: c1
    Full point group: C1

    Geometry (in Bohr), charge = 0, multiplicity = 1:

       Center              X                  Y                   Z               Mass       
    ------------   -----------------  -----------------  -----------------  -----------------
         C            2.331462835366     1.811440441258     1.091673995690    12.000000000000
         C            3.468847416305    -0.618344844416     0.166331803837    12.000000000000
         O            5.816920944314    -0.069870733763    -0.964841247327    15.994914619570
         H            6.583943771102    -1.613310215909    -1.523553894128     1.007825032230
         H            0.517972041262     1.442465746084     2.003181502578     1.007825032230
         H            2.035408891922     3.114654158884    -0.481810242125     1.007825032230
         H            3.590171613011     2.724178159855     2.446702113949     1.007825032230
         H            2.182397459138    -1.522726194085    -1.199439407446     1.007825032230
         H            3.693845767706    -1.941776741857     1.754223313632     1.007825032230
      Gh(C)          -4.987913210885     1.654795373541    -0.459056049848    12.000000000000
      Gh(C)          -3.610837657919    -0.761667342949    -1.027534801265    12.000000000000
      Gh(O)          -2.940784237533    -1.891434437875     1.294836561711    15.994914619570
      Gh(H)          -2.073069243876    -3.449806535865     0.968917386580     1.007825032230
      Gh(H)          -5.563737327751     2.598556725939    -2.199259485356     1.007825032230
      Gh(H)          -3.777471817936     2.939950868312     0.609019045986     1.007825032230
      Gh(H)          -6.671817925662     1.276096147725     0.669992949150     1.007825032230
      Gh(H)          -1.918650273534    -0.364743598379    -2.171369017470     1.007825032230
      Gh(H)          -4.817450465738    -2.030446471116    -2.145071588708     1.007825032230

  Running in c1 symmetry.

  Rotational constants: A =      0.19621  B =      0.03648  C =      0.03442 [cm^-1]
  Rotational constants: A =   5882.25072  B =   1093.60415  C =   1031.75830 [MHz]
  Nuclear repulsion =   82.271201859093580

  Charge       = 0
  Multiplicity = 1
  Electrons    = 26
  Nalpha       = 13
  Nbeta        = 13

  ==> Algorithm <==

  SCF Algorithm Type is DF.
  DIIS enabled.
  MOM disabled.
  Fractional occupation disabled.
  Guess Type is SAD.
  Energy threshold   = 1.00e-08
  Density threshold  = 1.00e-08
  Integral threshold = 1.00e-12

  ==> Primary Basis <==

  Basis Set: AUG-CC-PVTZ
    Blend: AUG-CC-PVTZ
    Number of shells: 192
    Number of basis functions: 552
    Number of Cartesian functions: 630
    Spherical Harmonics?: true
    Max angular momentum: 3

   => Loading Basis Set <=

    Name: (AUG-CC-PVTZ AUX)
    Role: JKFIT
    Keyword: DF_BASIS_SCF
    atoms 1-2, 10-11 entry C          line   162 file /Users/moseschung/miniconda3/envs/psi4/share/psi4/basis/aug-cc-pvtz-jkfit.gbs 
    atoms 3, 12      entry O          line   286 file /Users/moseschung/miniconda3/envs/psi4/share/psi4/basis/aug-cc-pvtz-jkfit.gbs 
    atoms 4-9, 13-18 entry H          line    70 file /Users/moseschung/miniconda3/envs/psi4/share/psi4/basis/aug-cc-pvtz-jkfit.gbs 

  ==> Integral Setup <==

  DFHelper Memory: AOs need 2.594 GiB; user supplied 6.985 GiB. 
  Using in-core AOs.

  ==> MemDFJK: Density-Fitted J/K Matrices <==

    J tasked:                   Yes
    K tasked:                   Yes
    wK tasked:                   No
    OpenMP threads:              10
    Memory [MiB]:              7152
    Algorithm:                 Core
    Schwarz Cutoff:           1E-12
    Mask sparsity (%):       6.3826
    Fitting Condition:        1E-10

   => Auxiliary Basis Set <=

  Basis Set: (AUG-CC-PVTZ AUX)
    Blend: AUG-CC-PVTZ-JKFIT
    Number of shells: 348
    Number of basis functions: 1176
    Number of Cartesian functions: 1446
    Spherical Harmonics?: true
    Max angular momentum: 4

  Minimum eigenvalue in the overlap matrix is 6.9806704485E-06.
  Reciprocal condition number of the overlap matrix is 3.7030240289E-07.
    Using symmetric orthogonalization.

  ==> Pre-Iterations <==

  SCF Guess: Superposition of Atomic Densities via on-the-fly atomic UHF (no occupation information).

   -------------------------
    Irrep   Nso     Nmo    
   -------------------------
     A        552     552 
   -------------------------
    Total     552     552
   -------------------------

  ==> Iterations <==

                           Total Energy        Delta E     RMS |[F,P]|

   @DF-RHF iter SAD:  -153.45374419427947   -1.53454e+02   0.00000e+00 
   @DF-RHF iter   1:  -153.99857653787726   -5.44832e-01   9.61005e-04 DIIS/ADIIS
   @DF-RHF iter   2:  -154.11085117701921   -1.12275e-01   5.34270e-04 DIIS/ADIIS
   @DF-RHF iter   3:  -154.14378787341332   -3.29367e-02   8.43445e-05 DIIS
   @DF-RHF iter   4:  -154.14538444170230   -1.59657e-03   3.23034e-05 DIIS
   @DF-RHF iter   5:  -154.14556785509598   -1.83413e-04   5.75478e-06 DIIS
   @DF-RHF iter   6:  -154.14557742941287   -9.57432e-06   1.27601e-06 DIIS
   @DF-RHF iter   7:  -154.14557798366812   -5.54255e-07   3.92751e-07 DIIS
   @DF-RHF iter   8:  -154.14557802760271   -4.39346e-08   1.04993e-07 DIIS
   @DF-RHF iter   9:  -154.14557803179733   -4.19462e-09   2.52483e-08 DIIS
   @DF-RHF iter  10:  -154.14557803205889   -2.61565e-10   4.79352e-09 DIIS
  Energy and wave function converged.


  ==> Post-Iterations <==

    Orbital Energies [Eh]
    ---------------------

    Doubly Occupied:                                                      

       1A    -20.555993     2A    -11.273687     3A    -11.210939  
       4A     -1.362665     5A     -1.014559     6A     -0.832418  
       7A     -0.704033     8A     -0.645498     9A     -0.574905  
      10A     -0.534190    11A     -0.524496    12A     -0.488392  
      13A     -0.439490  

    Virtual:                                                              

      14A      0.020981    15A      0.032110    16A      0.035520  
      17A      0.037526    18A      0.048909    19A      0.053619  
      20A      0.055504    21A      0.062813    22A      0.069235  
      23A      0.073702    24A      0.077370    25A      0.084434  
      26A      0.095569    27A      0.107455    28A      0.116420  
      29A      0.117402    30A      0.123543    31A      0.128949  
      32A      0.130430    33A      0.137932    34A      0.141537  
      35A      0.148068    36A      0.153520    37A      0.158677  
      38A      0.160760    39A      0.174916    40A      0.180368  
      41A      0.186040    42A      0.193108    43A      0.200514  
      44A      0.206379    45A      0.210921    46A      0.224394  
      47A      0.228604    48A      0.243554    49A      0.255462  
      50A      0.260094    51A      0.264701    52A      0.273140  
      53A      0.280316    54A      0.284755    55A      0.292288  
      56A      0.294033    57A      0.301106    58A      0.315403  
      59A      0.316203    60A      0.323731    61A      0.328285  
      62A      0.332854    63A      0.344798    64A      0.347317  
      65A      0.348424    66A      0.352387    67A      0.360488  
      68A      0.366315    69A      0.368920    70A      0.371598  
      71A      0.375468    72A      0.386263    73A      0.389494  
      74A      0.393182    75A      0.403146    76A      0.410295  
      77A      0.413216    78A      0.421353    79A      0.425026  
      80A      0.429825    81A      0.434119    82A      0.449149  
      83A      0.450398    84A      0.450710    85A      0.457660  
      86A      0.465986    87A      0.470892    88A      0.475506  
      89A      0.482903    90A      0.484997    91A      0.494315  
      92A      0.499176    93A      0.509623    94A      0.518007  
      95A      0.520222    96A      0.523377    97A      0.531675  
      98A      0.538656    99A      0.539470   100A      0.546281  
     101A      0.558955   102A      0.565328   103A      0.569964  
     104A      0.577468   105A      0.580519   106A      0.595491  
     107A      0.602622   108A      0.615044   109A      0.625862  
     110A      0.626227   111A      0.634258   112A      0.639231  
     113A      0.649240   114A      0.656362   115A      0.657035  
     116A      0.664141   117A      0.674112   118A      0.681592  
     119A      0.693215   120A      0.699507   121A      0.701757  
     122A      0.710174   123A      0.720851   124A      0.734905  
     125A      0.748994   126A      0.751031   127A      0.768793  
     128A      0.780922   129A      0.793636   130A      0.799896  
     131A      0.823276   132A      0.828506   133A      0.837590  
     134A      0.846234   135A      0.850681   136A      0.861738  
     137A      0.864172   138A      0.876751   139A      0.892242  
     140A      0.898809   141A      0.903857   142A      0.912047  
     143A      0.918983   144A      0.920016   145A      0.938476  
     146A      0.946348   147A      0.951884   148A      0.966483  
     149A      0.971196   150A      0.975541   151A      0.979944  
     152A      0.994024   153A      1.004372   154A      1.009415  
     155A      1.015641   156A      1.021059   157A      1.036319  
     158A      1.040582   159A      1.047553   160A      1.060015  
     161A      1.061532   162A      1.066627   163A      1.071311  
     164A      1.076107   165A      1.081460   166A      1.085769  
     167A      1.098749   168A      1.100514   169A      1.111679  
     170A      1.123186   171A      1.129587   172A      1.131185  
     173A      1.144528   174A      1.146724   175A      1.156402  
     176A      1.159979   177A      1.163391   178A      1.174385  
     179A      1.178449   180A      1.186162   181A      1.191461  
     182A      1.193444   183A      1.207718   184A      1.209229  
     185A      1.217791   186A      1.221854   187A      1.227336  
     188A      1.238370   189A      1.247301   190A      1.257892  
     191A      1.263568   192A      1.268210   193A      1.289081  
     194A      1.299218   195A      1.301361   196A      1.308771  
     197A      1.312307   198A      1.329134   199A      1.341897  
     200A      1.346223   201A      1.351672   202A      1.354187  
     203A      1.365607   204A      1.377376   205A      1.385849  
     206A      1.405574   207A      1.412028   208A      1.420303  
     209A      1.425407   210A      1.431666   211A      1.439585  
     212A      1.445405   213A      1.450913   214A      1.466725  
     215A      1.478487   216A      1.488183   217A      1.498953  
     218A      1.506846   219A      1.513995   220A      1.520168  
     221A      1.532733   222A      1.543969   223A      1.553858  
     224A      1.565302   225A      1.578825   226A      1.591218  
     227A      1.598308   228A      1.616715   229A      1.622230  
     230A      1.631912   231A      1.638658   232A      1.647373  
     233A      1.658999   234A      1.663106   235A      1.674520  
     236A      1.687129   237A      1.703330   238A      1.718426  
     239A      1.723549   240A      1.736275   241A      1.745990  
     242A      1.751374   243A      1.758111   244A      1.768224  
     245A      1.778629   246A      1.790569   247A      1.797880  
     248A      1.815128   249A      1.823928   250A      1.838599  
     251A      1.853270   252A      1.864250   253A      1.875234  
     254A      1.888621   255A      1.892007   256A      1.905166  
     257A      1.909584   258A      1.933814   259A      1.939359  
     260A      1.954341   261A      1.968941   262A      1.976364  
     263A      1.994945   264A      2.014616   265A      2.015900  
     266A      2.031624   267A      2.041762   268A      2.047647  
     269A      2.048035   270A      2.059053   271A      2.075569  
     272A      2.079398   273A      2.103838   274A      2.122228  
     275A      2.125513   276A      2.135091   277A      2.148289  
     278A      2.160414   279A      2.178066   280A      2.183246  
     281A      2.197270   282A      2.201609   283A      2.227396  
     284A      2.237076   285A      2.243646   286A      2.249669  
     287A      2.266323   288A      2.282990   289A      2.304264  
     290A      2.313289   291A      2.336708   292A      2.345129  
     293A      2.357589   294A      2.367186   295A      2.404168  
     296A      2.408385   297A      2.433918   298A      2.451508  
     299A      2.464808   300A      2.479892   301A      2.483136  
     302A      2.505531   303A      2.536770   304A      2.544814  
     305A      2.577624   306A      2.591453   307A      2.599440  
     308A      2.618250   309A      2.636806   310A      2.663028  
     311A      2.713236   312A      2.717475   313A      2.733498  
     314A      2.738258   315A      2.759955   316A      2.799416  
     317A      2.812384   318A      2.823500   319A      2.856259  
     320A      2.860134   321A      2.891580   322A      2.920173  
     323A      2.939675   324A      2.942963   325A      2.972167  
     326A      2.984808   327A      3.005295   328A      3.026742  
     329A      3.052615   330A      3.101357   331A      3.125339  
     332A      3.132151   333A      3.152397   334A      3.196452  
     335A      3.247012   336A      3.272760   337A      3.294059  
     338A      3.324296   339A      3.375344   340A      3.392956  
     341A      3.423493   342A      3.475661   343A      3.481056  
     344A      3.498478   345A      3.510962   346A      3.550781  
     347A      3.591023   348A      3.607771   349A      3.617170  
     350A      3.642987   351A      3.647405   352A      3.681886  
     353A      3.690937   354A      3.729671   355A      3.757721  
     356A      3.789267   357A      3.804193   358A      3.821613  
     359A      3.855879   360A      3.860842   361A      3.867082  
     362A      3.909401   363A      3.939768   364A      3.963380  
     365A      3.980789   366A      3.981782   367A      4.010645  
     368A      4.023816   369A      4.043826   370A      4.078087  
     371A      4.083548   372A      4.117866   373A      4.127702  
     374A      4.136611   375A      4.141792   376A      4.153623  
     377A      4.177928   378A      4.190817   379A      4.205693  
     380A      4.223593   381A      4.239530   382A      4.258153  
     383A      4.267953   384A      4.286773   385A      4.309007  
     386A      4.327334   387A      4.339169   388A      4.350299  
     389A      4.361052   390A      4.370669   391A      4.401722  
     392A      4.436312   393A      4.451455   394A      4.462635  
     395A      4.496149   396A      4.503624   397A      4.527244  
     398A      4.535565   399A      4.542004   400A      4.572643  
     401A      4.587828   402A      4.605524   403A      4.616172  
     404A      4.622796   405A      4.635381   406A      4.646269  
     407A      4.677196   408A      4.678900   409A      4.687030  
     410A      4.706402   411A      4.712581   412A      4.732632  
     413A      4.753023   414A      4.777021   415A      4.786967  
     416A      4.791655   417A      4.807260   418A      4.824305  
     419A      4.875770   420A      4.884080   421A      4.905873  
     422A      4.920134   423A      4.927057   424A      4.930888  
     425A      4.945131   426A      4.968237   427A      4.985560  
     428A      5.001304   429A      5.013768   430A      5.024853  
     431A      5.051782   432A      5.074987   433A      5.077877  
     434A      5.100874   435A      5.111687   436A      5.121556  
     437A      5.144866   438A      5.154113   439A      5.184096  
     440A      5.195252   441A      5.198636   442A      5.228053  
     443A      5.245000   444A      5.268627   445A      5.308580  
     446A      5.308850   447A      5.333357   448A      5.362769  
     449A      5.372506   450A      5.380611   451A      5.399839  
     452A      5.435138   453A      5.440006   454A      5.461983  
     455A      5.469966   456A      5.501523   457A      5.517339  
     458A      5.532027   459A      5.542761   460A      5.559548  
     461A      5.574416   462A      5.600803   463A      5.605493  
     464A      5.624458   465A      5.637887   466A      5.659229  
     467A      5.693147   468A      5.702460   469A      5.731311  
     470A      5.762860   471A      5.777589   472A      5.781647  
     473A      5.789618   474A      5.839038   475A      5.866742  
     476A      5.909203   477A      5.969279   478A      5.988599  
     479A      6.007952   480A      6.027396   481A      6.056444  
     482A      6.086255   483A      6.102758   484A      6.132514  
     485A      6.170263   486A      6.189457   487A      6.207844  
     488A      6.227700   489A      6.254336   490A      6.279383  
     491A      6.293188   492A      6.326391   493A      6.444629  
     494A      6.466472   495A      6.555385   496A      6.704971  
     497A      6.738391   498A      6.815424   499A      6.837711  
     500A      6.890076   501A      6.897203   502A      6.920467  
     503A      6.941730   504A      6.949572   505A      7.039581  
     506A      7.108190   507A      7.129350   508A      7.153045  
     509A      7.194869   510A      7.305888   511A      7.370072  
     512A      7.373746   513A      7.514582   514A      7.539959  
     515A      7.615955   516A      7.793392   517A      7.837448  
     518A      7.842269   519A      7.861722   520A      7.880098  
     521A      7.914256   522A      7.930455   523A      7.942805  
     524A      8.007921   525A      8.174980   526A      8.201550  
     527A      8.228955   528A      8.253379   529A      8.303366  
     530A      8.347320   531A      8.447980   532A      8.594802  
     533A      8.616470   534A      8.900358   535A      9.047443  
     536A     10.032773   537A     10.131462   538A     10.367057  
     539A     10.408614   540A     10.436132   541A     10.800405  
     542A     11.082226   543A     12.057033   544A     12.424052  
     545A     13.299238   546A     14.151760   547A     15.959348  
     548A     18.211188   549A     18.593472   550A     53.237687  
     551A     54.225366   552A     66.859111  

    Final Occupation by Irrep:
              A 
    DOCC [    13 ]
    NA   [    13 ]
    NB   [    13 ]

  @DF-RHF Final Energy:  -154.14557803205889

   => Energetics <=

    Nuclear Repulsion Energy =             82.2712018590935799
    One-Electron Energy =                -372.5110288171536581
    Two-Electron Energy =                 136.0942489260011712
    Total Energy =                       -154.1455780320588929

Computation Completed


Properties will be evaluated at   0.000000,   0.000000,   0.000000 [a0]

Properties computed using the SCF density matrix


 Multipole Moments:

 ------------------------------------------------------------------------------------
     Multipole            Electronic (a.u.)      Nuclear  (a.u.)        Total (a.u.)
 ------------------------------------------------------------------------------------

 L = 1.  Multiply by 2.5417464519 to convert [e a0] to [Debye]
 Dipole X            :       -100.2067404           99.9409686           -0.2657717
 Dipole Y            :         -9.3979088            8.8030926           -0.5948162
 Dipole Z            :         -2.7559429            2.8286082            0.0726653
 Magnitude           :                                                    0.6555312

 ------------------------------------------------------------------------------------

*** tstop() called on Moses-MBP.lan at Thu Feb 27 18:30:28 2025
Module time:
	user time   =      84.93 seconds =       1.42 minutes
	system time =       7.02 seconds =       0.12 minutes
	total time  =        938 seconds =      15.63 minutes
Total time:
	user time   =     176.90 seconds =       2.95 minutes
	system time =      15.07 seconds =       0.25 minutes
	total time  =        950 seconds =      15.83 minutes

*** tstart() called on Moses-MBP.lan
*** at Thu Feb 27 18:30:28 2025


  //>>>>>>>>>>>>>>>>>>>>>>>>>>>>>>>>>>>//
  //               DFMP2               //
  //<<<<<<<<<<<<<<<<<<<<<<<<<<<<<<<<<<<//

   => Loading Basis Set <=

    Name: (AUG-CC-PVTZ AUX)
    Role: RIFIT
    Keyword: DF_BASIS_MP2
    atoms 1-2, 10-11 entry C          line   148 file /Users/moseschung/miniconda3/envs/psi4/share/psi4/basis/aug-cc-pvtz-ri.gbs 
    atoms 3, 12      entry O          line   264 file /Users/moseschung/miniconda3/envs/psi4/share/psi4/basis/aug-cc-pvtz-ri.gbs 
    atoms 4-9, 13-18 entry H          line    30 file /Users/moseschung/miniconda3/envs/psi4/share/psi4/basis/aug-cc-pvtz-ri.gbs 

	 --------------------------------------------------------
	                          DF-MP2                         
	      2nd-Order Density-Fitted Moller-Plesset Theory     
	              RMP2 Wavefunction,  10 Threads             
	                                                         
	        Rob Parrish, Justin Turney, Andy Simmonett,      
	           Ed Hohenstein, and C. David Sherrill          
	 --------------------------------------------------------

   => Auxiliary Basis Set <=

  Basis Set: (AUG-CC-PVTZ AUX)
    Blend: AUG-CC-PVTZ-RI
    Number of shells: 336
    Number of basis functions: 1188
    Number of Cartesian functions: 1476
    Spherical Harmonics?: true
    Max angular momentum: 4

	 --------------------------------------------------------
	                 NBF =   552, NAUX =  1188
	 --------------------------------------------------------
	   CLASS    FOCC     OCC    AOCC    AVIR     VIR    FVIR
	   PAIRS       0      13      13     539     539       0
	 --------------------------------------------------------

	-----------------------------------------------------------
	 ==================> DF-MP2 Energies <==================== 
	-----------------------------------------------------------
	 Reference Energy          =    -154.1455780320588929 [Eh]
	 Singles Energy            =      -0.0000000000000000 [Eh]
	 Same-Spin Energy          =      -0.1481156965351250 [Eh]
	 Opposite-Spin Energy      =      -0.5181279834202379 [Eh]
	 Correlation Energy        =      -0.6662436799553629 [Eh]
	 Total Energy              =    -154.8118217120142504 [Eh]
	-----------------------------------------------------------
	 ================> DF-SCS-MP2 Energies <================== 
	-----------------------------------------------------------
	 SCS Same-Spin Scale       =       0.3333333333333333 [-]
	 SCS Opposite-Spin Scale   =       1.2000000000000000 [-]
	 SCS Same-Spin Energy      =      -0.0493718988450417 [Eh]
	 SCS Opposite-Spin Energy  =      -0.6217535801042855 [Eh]
	 SCS Correlation Energy    =      -0.6711254789493272 [Eh]
	 SCS Total Energy          =    -154.8167035110082281 [Eh]
	-----------------------------------------------------------


*** tstop() called on Moses-MBP.lan at Thu Feb 27 18:30:32 2025
Module time:
	user time   =      20.74 seconds =       0.35 minutes
	system time =       2.59 seconds =       0.04 minutes
	total time  =          4 seconds =       0.07 minutes
Total time:
	user time   =     197.65 seconds =       3.29 minutes
	system time =      17.66 seconds =       0.29 minutes
	total time  =        954 seconds =      15.90 minutes

    Psi4 stopped on: Thursday, 27 February 2025 06:30PM
    Psi4 wall time for execution: 0:15:41.37


    -----------------------------------------------------------------------
          Psi4: An Open-Source Ab Initio Electronic Structure Package
                               Psi4 1.9.1 release

                         Git: Rev {} zzzzzzz 


    D. G. A. Smith, L. A. Burns, A. C. Simmonett, R. M. Parrish,
    M. C. Schieber, R. Galvelis, P. Kraus, H. Kruse, R. Di Remigio,
    A. Alenaizan, A. M. James, S. Lehtola, J. P. Misiewicz, M. Scheurer,
    R. A. Shaw, J. B. Schriber, Y. Xie, Z. L. Glick, D. A. Sirianni,
    J. S. O'Brien, J. M. Waldrop, A. Kumar, E. G. Hohenstein,
    B. P. Pritchard, B. R. Brooks, H. F. Schaefer III, A. Yu. Sokolov,
    K. Patkowski, A. E. DePrince III, U. Bozkaya, R. A. King,
    F. A. Evangelista, J. M. Turney, T. D. Crawford, C. D. Sherrill,
    J. Chem. Phys. 152(18) 184108 (2020). https://doi.org/10.1063/5.0006002

                            Additional Code Authors
    E. T. Seidl, C. L. Janssen, E. F. Valeev, M. L. Leininger,
    J. F. Gonthier, R. M. Richard, H. R. McAlexander, M. Saitow, X. Wang,
    P. Verma, M. H. Lechner, A. Jiang, S. Behnle, A. G. Heide,
    M. F. Herbst, and D. L. Poole

             Previous Authors, Complete List of Code Contributors,
                       and Citations for Specific Modules
    https://github.com/psi4/psi4/blob/master/codemeta.json
    https://github.com/psi4/psi4/graphs/contributors
    http://psicode.org/psi4manual/master/introduction.html#citing-psifour

    -----------------------------------------------------------------------


    Psi4 started on: Thursday, 27 February 2025 06:14PM

    Process ID: 32535
    Host:       Moses-MBP.lan
    PSIDATADIR: /Users/moseschung/miniconda3/envs/psi4/share/psi4
    Memory:     9.3 GiB
    Threads:    10
    
  ==> Input QCSchema <==

--------------------------------------------------------------------------
{'driver': 'energy',
 'extras': {'psiapi': True, 'wfn_qcvars_only': True},
 'id': None,
 'keywords': {'SCF_TYPE': 'DF', 'function_kwargs': {}},
 'model': {'basis': 'aug-cc-pvtz', 'method': 'mp2'},
 'molecule': {'atom_labels': ['', '', '', '', '', '', '', '', '', '', '', '', '', '', '', '', '', ''],
              'atomic_numbers': [6, 6, 8, 1, 1, 1, 1, 1, 1, 6, 6, 8, 1, 1, 1, 1, 1, 1],
              'extras': {},
              'fix_com': True,
              'fix_orientation': True,
              'fix_symmetry': 'c1',
              'fragment_charges': [0.0, 0.0],
              'fragment_multiplicities': [1, 1],
              'fragments': [[0, 1, 2, 3, 4, 5, 6, 7, 8], [9, 10, 11, 12, 13, 14, 15, 16, 17]],
              'geometry': [2.331462835366473, 1.8114404412584868, 1.0916739956896073, 3.46884741630478,
                           -0.6183448444155578, 0.16633180383667256, 5.816920944314028, -0.06987073376267773,
                           -0.9648412473272543, 6.5839437711022315, -1.6133102159087354, -1.5235538941278648,
                           0.5179720412618652, 1.4424657460844694, 2.0031815025780655, 2.035408891921623,
                           3.114654158884094, -0.4818102421251042, 3.5901716130114236, 2.7241781598546178,
                           2.446702113949143, 2.1823974591381097, -1.5227261940849142, -1.1994394074460908,
                           3.693845767706291, -1.9417767418574385, 1.7542233136318746, -4.987913210884683,
                           1.6547953735409107, -0.45905604984846654, -3.61083765791943, -0.7616673429486557,
                           -1.027534801265443, -2.94078423753297, -1.8914344378752421, 1.2948365617114526,
                           -2.073069243875872, -3.449806535864667, 0.9689173865798667, -5.563737327751314,
                           2.5985567259386833, -2.1992594853555696, -3.777471817936177, 2.9399508683116435,
                           0.6090190459864232, -6.671817925662146, 1.2760961477252877, 0.6699929491504457,
                           -1.9186502735340858, -0.36474359837911724, -2.1713690174699374, -4.8174504657377595,
                           -2.0304464711161705, -2.1450715887080665],
              'mass_numbers': [12, 12, 16, 1, 1, 1, 1, 1, 1, 12, 12, 16, 1, 1, 1, 1, 1, 1],
              'masses': [12.0, 12.0, 15.99491461957, 1.00782503223, 1.00782503223, 1.00782503223, 1.00782503223,
                         1.00782503223, 1.00782503223, 12.0, 12.0, 15.99491461957, 1.00782503223, 1.00782503223,
                         1.00782503223, 1.00782503223, 1.00782503223, 1.00782503223],
              'molecular_charge': 0.0,
              'molecular_multiplicity': 1,
              'name': 'dimer',
              'provenance': {'creator': 'QCElemental',
                             'routine': 'qcelemental.molparse.from_string',
                             'version': '0.29.0'},
              'real': [True, True, True, True, True, True, True, True, True, True, True, True, True, True, True, True,
                       True, True],
              'schema_name': 'qcschema_molecule',
              'schema_version': 2,
              'symbols': ['C', 'C', 'O', 'H', 'H', 'H', 'H', 'H', 'H', 'C', 'C', 'O', 'H', 'H', 'H', 'H', 'H', 'H'],
              'validated': True},
 'protocols': {'stdout': True},
 'provenance': {'creator': 'QCElemental', 'routine': 'qcelemental.models.results', 'version': '0.29.0'},
 'schema_name': 'qcschema_input',
 'schema_version': 1}
--------------------------------------------------------------------------

Scratch directory: /tmp/
   => Libint2 <=

    Primary   basis highest AM E, G, H:  6, 6, 3
    Auxiliary basis highest AM E, G, H:  7, 7, 4
    Onebody   basis highest AM E, G, H:  -, -, -
    Solid Harmonics ordering:            Gaussian

*** tstart() called on Moses-MBP.lan
*** at Thu Feb 27 18:30:32 2025

   => Loading Basis Set <=

    Name: AUG-CC-PVTZ
    Role: ORBITAL
    Keyword: BASIS
    atoms 1-2, 10-11 entry C          line   239 file /Users/moseschung/miniconda3/envs/psi4/share/psi4/basis/aug-cc-pvtz.gbs 
    atoms 3, 12      entry O          line   331 file /Users/moseschung/miniconda3/envs/psi4/share/psi4/basis/aug-cc-pvtz.gbs 
    atoms 4-9, 13-18 entry H          line    40 file /Users/moseschung/miniconda3/envs/psi4/share/psi4/basis/aug-cc-pvtz.gbs 


         ---------------------------------------------------------
                                   SCF
               by Justin Turney, Rob Parrish, Andy Simmonett
                          and Daniel G. A. Smith
                              RHF Reference
                       10 Threads,   9536 MiB Core
         ---------------------------------------------------------

  ==> Geometry <==

    Molecular point group: c1
    Full point group: C1

    Geometry (in Bohr), charge = 0, multiplicity = 1:

       Center              X                  Y                   Z               Mass       
    ------------   -----------------  -----------------  -----------------  -----------------
         C            2.331462835366     1.811440441258     1.091673995690    12.000000000000
         C            3.468847416305    -0.618344844416     0.166331803837    12.000000000000
         O            5.816920944314    -0.069870733763    -0.964841247327    15.994914619570
         H            6.583943771102    -1.613310215909    -1.523553894128     1.007825032230
         H            0.517972041262     1.442465746084     2.003181502578     1.007825032230
         H            2.035408891922     3.114654158884    -0.481810242125     1.007825032230
         H            3.590171613011     2.724178159855     2.446702113949     1.007825032230
         H            2.182397459138    -1.522726194085    -1.199439407446     1.007825032230
         H            3.693845767706    -1.941776741857     1.754223313632     1.007825032230
         C           -4.987913210885     1.654795373541    -0.459056049848    12.000000000000
         C           -3.610837657919    -0.761667342949    -1.027534801265    12.000000000000
         O           -2.940784237533    -1.891434437875     1.294836561711    15.994914619570
         H           -2.073069243876    -3.449806535865     0.968917386580     1.007825032230
         H           -5.563737327751     2.598556725939    -2.199259485356     1.007825032230
         H           -3.777471817936     2.939950868312     0.609019045986     1.007825032230
         H           -6.671817925662     1.276096147725     0.669992949150     1.007825032230
         H           -1.918650273534    -0.364743598379    -2.171369017470     1.007825032230
         H           -4.817450465738    -2.030446471116    -2.145071588708     1.007825032230

  Running in c1 symmetry.

  Rotational constants: A =      0.19621  B =      0.03648  C =      0.03442 [cm^-1]
  Rotational constants: A =   5882.25072  B =   1093.60415  C =   1031.75830 [MHz]
  Nuclear repulsion =  250.270653095889315

  Charge       = 0
  Multiplicity = 1
  Electrons    = 52
  Nalpha       = 26
  Nbeta        = 26

  ==> Algorithm <==

  SCF Algorithm Type is DF.
  DIIS enabled.
  MOM disabled.
  Fractional occupation disabled.
  Guess Type is SAD.
  Energy threshold   = 1.00e-08
  Density threshold  = 1.00e-08
  Integral threshold = 1.00e-12

  ==> Primary Basis <==

  Basis Set: AUG-CC-PVTZ
    Blend: AUG-CC-PVTZ
    Number of shells: 192
    Number of basis functions: 552
    Number of Cartesian functions: 630
    Spherical Harmonics?: true
    Max angular momentum: 3

   => Loading Basis Set <=

    Name: (AUG-CC-PVTZ AUX)
    Role: JKFIT
    Keyword: DF_BASIS_SCF
    atoms 1-2, 10-11 entry C          line   162 file /Users/moseschung/miniconda3/envs/psi4/share/psi4/basis/aug-cc-pvtz-jkfit.gbs 
    atoms 3, 12      entry O          line   286 file /Users/moseschung/miniconda3/envs/psi4/share/psi4/basis/aug-cc-pvtz-jkfit.gbs 
    atoms 4-9, 13-18 entry H          line    70 file /Users/moseschung/miniconda3/envs/psi4/share/psi4/basis/aug-cc-pvtz-jkfit.gbs 

  ==> Integral Setup <==

  DFHelper Memory: AOs need 2.594 GiB; user supplied 6.985 GiB. 
  Using in-core AOs.

  ==> MemDFJK: Density-Fitted J/K Matrices <==

    J tasked:                   Yes
    K tasked:                   Yes
    wK tasked:                   No
    OpenMP threads:              10
    Memory [MiB]:              7152
    Algorithm:                 Core
    Schwarz Cutoff:           1E-12
    Mask sparsity (%):       6.3826
    Fitting Condition:        1E-10

   => Auxiliary Basis Set <=

  Basis Set: (AUG-CC-PVTZ AUX)
    Blend: AUG-CC-PVTZ-JKFIT
    Number of shells: 348
    Number of basis functions: 1176
    Number of Cartesian functions: 1446
    Spherical Harmonics?: true
    Max angular momentum: 4

  Minimum eigenvalue in the overlap matrix is 6.9806704485E-06.
  Reciprocal condition number of the overlap matrix is 3.7030240289E-07.
    Using symmetric orthogonalization.

  ==> Pre-Iterations <==

  SCF Guess: Superposition of Atomic Densities via on-the-fly atomic UHF (no occupation information).

   -------------------------
    Irrep   Nso     Nmo    
   -------------------------
     A        552     552 
   -------------------------
    Total     552     552
   -------------------------

  ==> Iterations <==

                           Total Energy        Delta E     RMS |[F,P]|

   @DF-RHF iter SAD:  -307.06522686286098   -3.07065e+02   0.00000e+00 
   @DF-RHF iter   1:  -307.99753021243998   -9.32303e-01   1.34567e-03 DIIS/ADIIS
   @DF-RHF iter   2:  -308.22189200382206   -2.24362e-01   7.36989e-04 DIIS/ADIIS
   @DF-RHF iter   3:  -308.28479032154280   -6.28983e-02   1.20494e-04 DIIS/ADIIS
   @DF-RHF iter   4:  -308.28803088697771   -3.24057e-03   4.51080e-05 DIIS
   @DF-RHF iter   5:  -308.28838463142313   -3.53744e-04   8.17806e-06 DIIS
   @DF-RHF iter   6:  -308.28840412000346   -1.94886e-05   1.83896e-06 DIIS
   @DF-RHF iter   7:  -308.28840526401279   -1.14401e-06   5.62094e-07 DIIS
   @DF-RHF iter   8:  -308.28840535434063   -9.03278e-08   1.50650e-07 DIIS
   @DF-RHF iter   9:  -308.28840536273628   -8.39566e-09   3.65240e-08 DIIS
   @DF-RHF iter  10:  -308.28840536328613   -5.49846e-10   7.75644e-09 DIIS
  Energy and wave function converged.


  ==> Post-Iterations <==

    Orbital Energies [Eh]
    ---------------------

    Doubly Occupied:                                                      

       1A    -20.561030     2A    -20.555281     3A    -11.277343  
       4A    -11.272698     5A    -11.213454     6A    -11.203668  
       7A     -1.367672     8A     -1.361948     9A     -1.018003  
      10A     -1.010694    11A     -0.837297    12A     -0.829751  
      13A     -0.709190    14A     -0.703232    15A     -0.654935  
      16A     -0.639659    17A     -0.578847    18A     -0.572727  
      19A     -0.537722    20A     -0.529734    21A     -0.525369  
      22A     -0.520501    23A     -0.492923    24A     -0.486156  
      25A     -0.445524    26A     -0.437516  

    Virtual:                                                              

      27A      0.024626    28A      0.034860    29A      0.037634  
      30A      0.039374    31A      0.050589    32A      0.053682  
      33A      0.055866    34A      0.063934    35A      0.070808  
      36A      0.073629    37A      0.079149    38A      0.091181  
      39A      0.107650    40A      0.116415    41A      0.122328  
      42A      0.126705    43A      0.130435    44A      0.133095  
      45A      0.138606    46A      0.144125    47A      0.148080  
      48A      0.154820    49A      0.160510    50A      0.161531  
      51A      0.167288    52A      0.179926    53A      0.184272  
      54A      0.190821    55A      0.198259    56A      0.202021  
      57A      0.215725    58A      0.224528    59A      0.227275  
      60A      0.236539    61A      0.255194    62A      0.257216  
      63A      0.264576    64A      0.271750    65A      0.279967  
      66A      0.284073    67A      0.284455    68A      0.296754  
      69A      0.304159    70A      0.311381    71A      0.314641  
      72A      0.322284    73A      0.325929    74A      0.329933  
      75A      0.339398    76A      0.347497    77A      0.350414  
      78A      0.352287    79A      0.358078    80A      0.364811  
      81A      0.369524    82A      0.373458    83A      0.379594  
      84A      0.382720    85A      0.389035    86A      0.398176  
      87A      0.405845    88A      0.413826    89A      0.415975  
      90A      0.418444    91A      0.425735    92A      0.429229  
      93A      0.433451    94A      0.434829    95A      0.441932  
      96A      0.448944    97A      0.455852    98A      0.462588  
      99A      0.465374   100A      0.467375   101A      0.471641  
     102A      0.476016   103A      0.483091   104A      0.491093  
     105A      0.493856   106A      0.503648   107A      0.507261  
     108A      0.513892   109A      0.515787   110A      0.522697  
     111A      0.531913   112A      0.536393   113A      0.541016  
     114A      0.546864   115A      0.555727   116A      0.558981  
     117A      0.564897   118A      0.570607   119A      0.582497  
     120A      0.590316   121A      0.594381   122A      0.609223  
     123A      0.614922   124A      0.620472   125A      0.629276  
     126A      0.632052   127A      0.642149   128A      0.649189  
     129A      0.651681   130A      0.666900   131A      0.670208  
     132A      0.682470   133A      0.698748   134A      0.713536  
     135A      0.737625   136A      0.745174   137A      0.758514  
     138A      0.761320   139A      0.779211   140A      0.786982  
     141A      0.801192   142A      0.807970   143A      0.813016  
     144A      0.820022   145A      0.822405   146A      0.834831  
     147A      0.841118   148A      0.849964   149A      0.853910  
     150A      0.856028   151A      0.868566   152A      0.877076  
     153A      0.884340   154A      0.888735   155A      0.896854  
     156A      0.907329   157A      0.909461   158A      0.918852  
     159A      0.922291   160A      0.936352   161A      0.936982  
     162A      0.942259   163A      0.949420   164A      0.956378  
     165A      0.960219   166A      0.969067   167A      0.979526  
     168A      0.989492   169A      0.997188   170A      1.006575  
     171A      1.008386   172A      1.009905   173A      1.019123  
     174A      1.027063   175A      1.033092   176A      1.036760  
     177A      1.047800   178A      1.058729   179A      1.060850  
     180A      1.066941   181A      1.081612   182A      1.087274  
     183A      1.093647   184A      1.099024   185A      1.106077  
     186A      1.108704   187A      1.119792   188A      1.129268  
     189A      1.135430   190A      1.142073   191A      1.147176  
     192A      1.151742   193A      1.161307   194A      1.169534  
     195A      1.175318   196A      1.182354   197A      1.185290  
     198A      1.190725   199A      1.192361   200A      1.210181  
     201A      1.217731   202A      1.220536   203A      1.237885  
     204A      1.240939   205A      1.250579   206A      1.258378  
     207A      1.269232   208A      1.274462   209A      1.279905  
     210A      1.296831   211A      1.307808   212A      1.320110  
     213A      1.330861   214A      1.339962   215A      1.346274  
     216A      1.350064   217A      1.368403   218A      1.377576  
     219A      1.380580   220A      1.383980   221A      1.393569  
     222A      1.411388   223A      1.424014   224A      1.430810  
     225A      1.442486   226A      1.457547   227A      1.465138  
     228A      1.479048   229A      1.482499   230A      1.496464  
     231A      1.501898   232A      1.509961   233A      1.519472  
     234A      1.535384   235A      1.544458   236A      1.556455  
     237A      1.565004   238A      1.577829   239A      1.580180  
     240A      1.600901   241A      1.608040   242A      1.611279  
     243A      1.622249   244A      1.630874   245A      1.648170  
     246A      1.658345   247A      1.667790   248A      1.673257  
     249A      1.682407   250A      1.690460   251A      1.692877  
     252A      1.699907   253A      1.713262   254A      1.722901  
     255A      1.730522   256A      1.737977   257A      1.746407  
     258A      1.759049   259A      1.765366   260A      1.772420  
     261A      1.781108   262A      1.792382   263A      1.798048  
     264A      1.809504   265A      1.811535   266A      1.830341  
     267A      1.840038   268A      1.843641   269A      1.858202  
     270A      1.875117   271A      1.890145   272A      1.898593  
     273A      1.905262   274A      1.911465   275A      1.928385  
     276A      1.945351   277A      1.965212   278A      1.971151  
     279A      1.980940   280A      1.988122   281A      2.001532  
     282A      2.007196   283A      2.015211   284A      2.028920  
     285A      2.038797   286A      2.071390   287A      2.074974  
     288A      2.084076   289A      2.103530   290A      2.107915  
     291A      2.118359   292A      2.124028   293A      2.135449  
     294A      2.147137   295A      2.164931   296A      2.185142  
     297A      2.190928   298A      2.200235   299A      2.222266  
     300A      2.231480   301A      2.244392   302A      2.264243  
     303A      2.274773   304A      2.289440   305A      2.297613  
     306A      2.311812   307A      2.326236   308A      2.336368  
     309A      2.350938   310A      2.376788   311A      2.384972  
     312A      2.415686   313A      2.432219   314A      2.458096  
     315A      2.472343   316A      2.494164   317A      2.508745  
     318A      2.522671   319A      2.548677   320A      2.580592  
     321A      2.593431   322A      2.602160   323A      2.612966  
     324A      2.664285   325A      2.696944   326A      2.728355  
     327A      2.758245   328A      2.767767   329A      2.816589  
     330A      2.844270   331A      2.884175   332A      2.889312  
     333A      2.929313   334A      2.932140   335A      2.942242  
     336A      2.951193   337A      2.970970   338A      2.983108  
     339A      3.006534   340A      3.023180   341A      3.031885  
     342A      3.048371   343A      3.084742   344A      3.099060  
     345A      3.117244   346A      3.157723   347A      3.200079  
     348A      3.245293   349A      3.275478   350A      3.330769  
     351A      3.373539   352A      3.386655   353A      3.454340  
     354A      3.460247   355A      3.469191   356A      3.495211  
     357A      3.515011   358A      3.531498   359A      3.541365  
     360A      3.547383   361A      3.600985   362A      3.617179  
     363A      3.626316   364A      3.634015   365A      3.646255  
     366A      3.656705   367A      3.670893   368A      3.690983  
     369A      3.710885   370A      3.727961   371A      3.745352  
     372A      3.757171   373A      3.766288   374A      3.787241  
     375A      3.809082   376A      3.813597   377A      3.832793  
     378A      3.844808   379A      3.854702   380A      3.872607  
     381A      3.877848   382A      3.907251   383A      3.929698  
     384A      3.952837   385A      3.967752   386A      3.971363  
     387A      3.979556   388A      3.988304   389A      3.995715  
     390A      4.007453   391A      4.018795   392A      4.036029  
     393A      4.048362   394A      4.070792   395A      4.079269  
     396A      4.087077   397A      4.105935   398A      4.113589  
     399A      4.125350   400A      4.135595   401A      4.141422  
     402A      4.160646   403A      4.171754   404A      4.181853  
     405A      4.194630   406A      4.214585   407A      4.226793  
     408A      4.250408   409A      4.258243   410A      4.283119  
     411A      4.296865   412A      4.304088   413A      4.329212  
     414A      4.342444   415A      4.352261   416A      4.376497  
     417A      4.388236   418A      4.400889   419A      4.415010  
     420A      4.428057   421A      4.487272   422A      4.511716  
     423A      4.522249   424A      4.528483   425A      4.551263  
     426A      4.563124   427A      4.568210   428A      4.597434  
     429A      4.603284   430A      4.615247   431A      4.628772  
     432A      4.637868   433A      4.646983   434A      4.684087  
     435A      4.701257   436A      4.708391   437A      4.737074  
     438A      4.749102   439A      4.782580   440A      4.791401  
     441A      4.807683   442A      4.819225   443A      4.850854  
     444A      4.851843   445A      4.870833   446A      4.883693  
     447A      4.918887   448A      4.922921   449A      4.943981  
     450A      4.948614   451A      4.968644   452A      4.984348  
     453A      5.020608   454A      5.033528   455A      5.046597  
     456A      5.064589   457A      5.094276   458A      5.110667  
     459A      5.116864   460A      5.125791   461A      5.139166  
     462A      5.157165   463A      5.170999   464A      5.182321  
     465A      5.196582   466A      5.209840   467A      5.234331  
     468A      5.256819   469A      5.261237   470A      5.292945  
     471A      5.332773   472A      5.347753   473A      5.361685  
     474A      5.370575   475A      5.382345   476A      5.398508  
     477A      5.425050   478A      5.427923   479A      5.471069  
     480A      5.481558   481A      5.509622   482A      5.543807  
     483A      5.552094   484A      5.566863   485A      5.586736  
     486A      5.602983   487A      5.611071   488A      5.614559  
     489A      5.653998   490A      5.693168   491A      5.753650  
     492A      5.762902   493A      5.788172   494A      5.789963  
     495A      5.816713   496A      5.836884   497A      5.851724  
     498A      5.868320   499A      6.018172   500A      6.024534  
     501A      6.071416   502A      6.072231   503A      6.103957  
     504A      6.119539   505A      6.172957   506A      6.176674  
     507A      6.204432   508A      6.246427   509A      6.252953  
     510A      6.271726   511A      6.302494   512A      6.323959  
     513A      6.422738   514A      6.454482   515A      6.704586  
     516A      6.721933   517A      6.748195   518A      6.765782  
     519A      6.809045   520A      6.854899   521A      6.881499  
     522A      6.918187   523A      6.943661   524A      6.947076  
     525A      7.000259   526A      7.032184   527A      7.126048  
     528A      7.207043   529A      7.367799   530A      7.371405  
     531A      7.379092   532A      7.413062   533A      7.512799  
     534A      7.536537   535A      7.554091   536A      7.562874  
     537A      7.618589   538A      7.637416   539A      7.850017  
     540A      7.855854   541A      7.948704   542A      7.988417  
     543A      8.251898   544A      8.296155   545A      8.610061  
     546A      8.646452   547A     15.958166   548A     16.326177  
     549A     18.073947   550A     18.224895   551A     18.403986  
     552A     18.679259  

    Final Occupation by Irrep:
              A 
    DOCC [    26 ]
    NA   [    26 ]
    NB   [    26 ]

  @DF-RHF Final Energy:  -308.28840536328613

   => Energetics <=

    Nuclear Repulsion Energy =            250.2706530958893154
    One-Electron Energy =                -916.4323661001565142
    Two-Electron Energy =                 357.8733076409810678
    Total Energy =                       -308.2884053632861310

Computation Completed


Properties will be evaluated at   0.000000,   0.000000,   0.000000 [a0]

Properties computed using the SCF density matrix


 Multipole Moments:

 ------------------------------------------------------------------------------------
     Multipole            Electronic (a.u.)      Nuclear  (a.u.)        Total (a.u.)
 ------------------------------------------------------------------------------------

 L = 1.  Multiply by 2.5417464519 to convert [e a0] to [Debye]
 Dipole X            :         -0.2158091           -0.0000076           -0.2158167
 Dipole Y            :         -0.8167240           -0.0000076           -0.8167316
 Dipole Z            :         -0.4847488           -0.0000151           -0.4847639
 Magnitude           :                                                    0.9739730

 ------------------------------------------------------------------------------------

*** tstop() called on Moses-MBP.lan at Thu Feb 27 18:30:43 2025
Module time:
	user time   =      82.53 seconds =       1.38 minutes
	system time =       8.58 seconds =       0.14 minutes
	total time  =         11 seconds =       0.18 minutes
Total time:
	user time   =     280.41 seconds =       4.67 minutes
	system time =      26.34 seconds =       0.44 minutes
	total time  =        965 seconds =      16.08 minutes

*** tstart() called on Moses-MBP.lan
*** at Thu Feb 27 18:30:43 2025


  //>>>>>>>>>>>>>>>>>>>>>>>>>>>>>>>>>>>//
  //               DFMP2               //
  //<<<<<<<<<<<<<<<<<<<<<<<<<<<<<<<<<<<//

   => Loading Basis Set <=

    Name: (AUG-CC-PVTZ AUX)
    Role: RIFIT
    Keyword: DF_BASIS_MP2
    atoms 1-2, 10-11 entry C          line   148 file /Users/moseschung/miniconda3/envs/psi4/share/psi4/basis/aug-cc-pvtz-ri.gbs 
    atoms 3, 12      entry O          line   264 file /Users/moseschung/miniconda3/envs/psi4/share/psi4/basis/aug-cc-pvtz-ri.gbs 
    atoms 4-9, 13-18 entry H          line    30 file /Users/moseschung/miniconda3/envs/psi4/share/psi4/basis/aug-cc-pvtz-ri.gbs 

	 --------------------------------------------------------
	                          DF-MP2                         
	      2nd-Order Density-Fitted Moller-Plesset Theory     
	              RMP2 Wavefunction,  10 Threads             
	                                                         
	        Rob Parrish, Justin Turney, Andy Simmonett,      
	           Ed Hohenstein, and C. David Sherrill          
	 --------------------------------------------------------

   => Auxiliary Basis Set <=

  Basis Set: (AUG-CC-PVTZ AUX)
    Blend: AUG-CC-PVTZ-RI
    Number of shells: 336
    Number of basis functions: 1188
    Number of Cartesian functions: 1476
    Spherical Harmonics?: true
    Max angular momentum: 4

	 --------------------------------------------------------
	                 NBF =   552, NAUX =  1188
	 --------------------------------------------------------
	   CLASS    FOCC     OCC    AOCC    AVIR     VIR    FVIR
	   PAIRS       0      26      26     526     526       0
	 --------------------------------------------------------

	-----------------------------------------------------------
	 ==================> DF-MP2 Energies <==================== 
	-----------------------------------------------------------
	 Reference Energy          =    -308.2884053632861310 [Eh]
	 Singles Energy            =      -0.0000000000000000 [Eh]
	 Same-Spin Energy          =      -0.2988858560601842 [Eh]
	 Opposite-Spin Energy      =      -1.0390807403670634 [Eh]
	 Correlation Energy        =      -1.3379665964272476 [Eh]
	 Total Energy              =    -309.6263719597133672 [Eh]
	-----------------------------------------------------------
	 ================> DF-SCS-MP2 Energies <================== 
	-----------------------------------------------------------
	 SCS Same-Spin Scale       =       0.3333333333333333 [-]
	 SCS Opposite-Spin Scale   =       1.2000000000000000 [-]
	 SCS Same-Spin Energy      =      -0.0996286186867281 [Eh]
	 SCS Opposite-Spin Energy  =      -1.2468968884404761 [Eh]
	 SCS Correlation Energy    =      -1.3465255071272042 [Eh]
	 SCS Total Energy          =    -309.6349308704133136 [Eh]
	-----------------------------------------------------------


*** tstop() called on Moses-MBP.lan at Thu Feb 27 18:30:48 2025
Module time:
	user time   =      31.08 seconds =       0.52 minutes
	system time =       3.23 seconds =       0.05 minutes
	total time  =          5 seconds =       0.08 minutes
Total time:
	user time   =     311.49 seconds =       5.19 minutes
	system time =      29.57 seconds =       0.49 minutes
	total time  =        970 seconds =      16.17 minutes

    Psi4 stopped on: Thursday, 27 February 2025 06:30PM
    Psi4 wall time for execution: 0:00:16.41


  //>>>>>>>>>>>>>>>>>>>>>>>>>>>>>>>>>>>//
  //          ManyBody Results         //
  //<<<<<<<<<<<<<<<<<<<<<<<<<<<<<<<<<<<//


   ==> N-Body: Counterpoise Corrected (CP) energies <==

        n-Body     Total Energy            Interaction Energy                          N-body Contribution to Interaction Energy
                   [Eh]                    [Eh]                  [kcal/mol]            [Eh]                  [kcal/mol]
             1  N/A                         0.000000000000        0.000000000000        0.000000000000        0.000000000000
  FULL/RTN   2  N/A                        -0.002406682417       -1.510216017017       -0.002406682417       -1.510216017017


    Psi4 stopped on: Thursday, 27 February 2025 06:30PM
    Psi4 wall time for execution: 0:16:11.99

*** Psi4 exiting successfully. Buy a developer a beer!
