
    -----------------------------------------------------------------------
          Psi4: An Open-Source Ab Initio Electronic Structure Package
                               Psi4 1.9.1 release

                         Git: Rev {} zzzzzzz 


    D. G. A. Smith, L. A. Burns, A. C. Simmonett, R. M. Parrish,
    M. C. Schieber, R. Galvelis, P. Kraus, H. Kruse, R. Di Remigio,
    A. Alenaizan, A. M. James, S. Lehtola, J. P. Misiewicz, M. Scheurer,
    R. A. Shaw, J. B. Schriber, Y. Xie, Z. L. Glick, D. A. Sirianni,
    J. S. O'Brien, J. M. Waldrop, A. Kumar, E. G. Hohenstein,
    B. P. Pritchard, B. R. Brooks, H. F. Schaefer III, A. Yu. Sokolov,
    K. Patkowski, A. E. DePrince III, U. Bozkaya, R. A. King,
    F. A. Evangelista, J. M. Turney, T. D. Crawford, C. D. Sherrill,
    J. Chem. Phys. 152(18) 184108 (2020). https://doi.org/10.1063/5.0006002

                            Additional Code Authors
    E. T. Seidl, C. L. Janssen, E. F. Valeev, M. L. Leininger,
    J. F. Gonthier, R. M. Richard, H. R. McAlexander, M. Saitow, X. Wang,
    P. Verma, M. H. Lechner, A. Jiang, S. Behnle, A. G. Heide,
    M. F. Herbst, and D. L. Poole

             Previous Authors, Complete List of Code Contributors,
                       and Citations for Specific Modules
    https://github.com/psi4/psi4/blob/master/codemeta.json
    https://github.com/psi4/psi4/graphs/contributors
    http://psicode.org/psi4manual/master/introduction.html#citing-psifour

    -----------------------------------------------------------------------


    Psi4 started on: Thursday, 27 February 2025 05:24PM

    Process ID: 30650
    Host:       Moses-MBP.lan
    PSIDATADIR: /Users/moseschung/miniconda3/envs/psi4/share/psi4
    Memory:     500.0 MiB
    Threads:    10
    
  ==> Input File <==

--------------------------------------------------------------------------
MEMORY 10 GB

molecule dimer {
0 1
C   -2.017771   0.980042   0.536010
C   -1.935956  -0.093822  -0.517098
O   -1.142113  -1.192056  -0.108857
H   -1.491699  -1.541411   0.715301
H   -2.615045   1.824748   0.187717
H   -1.020826   1.345641   0.793407
H   -2.485342   0.598282   1.448301
H   -1.462803   0.290103  -1.424920
H   -2.939158  -0.435743  -0.803051
--
0 1
C    1.674370   1.185617  -0.536867
C    1.878173   0.131763   0.526479
O    1.728993  -1.168601   0.027887
H    0.790317  -1.289550  -0.178936
H    1.807468   2.192948  -0.133917
H    0.664837   1.120067  -0.955195
H    2.381254   1.042797  -1.356350
H    1.191706   0.314903   1.369907
H    2.891355   0.200876   0.934345

units ang
no_reorient
no_com
symmetry c1
}

set {
basis        aug-cc-pVTZ
scf_type     df
}

energy("mp2", bsse_type="cp")
--------------------------------------------------------------------------

  Memory set to   9.313 GiB by Python driver.

Scratch directory: /tmp/

  //>>>>>>>>>>>>>>>>>>>>>>>>>>>>>>>>>>>>>//
  // ManyBody Setup: N-Body Levels [1, 2]//
  //<<<<<<<<<<<<<<<<<<<<<<<<<<<<<<<<<<<<<//

        Number of 1-body computations:     2
        Number of 2-body computations:     1

    -----------------------------------------------------------------------
          Psi4: An Open-Source Ab Initio Electronic Structure Package
                               Psi4 1.9.1 release

                         Git: Rev {} zzzzzzz 


    D. G. A. Smith, L. A. Burns, A. C. Simmonett, R. M. Parrish,
    M. C. Schieber, R. Galvelis, P. Kraus, H. Kruse, R. Di Remigio,
    A. Alenaizan, A. M. James, S. Lehtola, J. P. Misiewicz, M. Scheurer,
    R. A. Shaw, J. B. Schriber, Y. Xie, Z. L. Glick, D. A. Sirianni,
    J. S. O'Brien, J. M. Waldrop, A. Kumar, E. G. Hohenstein,
    B. P. Pritchard, B. R. Brooks, H. F. Schaefer III, A. Yu. Sokolov,
    K. Patkowski, A. E. DePrince III, U. Bozkaya, R. A. King,
    F. A. Evangelista, J. M. Turney, T. D. Crawford, C. D. Sherrill,
    J. Chem. Phys. 152(18) 184108 (2020). https://doi.org/10.1063/5.0006002

                            Additional Code Authors
    E. T. Seidl, C. L. Janssen, E. F. Valeev, M. L. Leininger,
    J. F. Gonthier, R. M. Richard, H. R. McAlexander, M. Saitow, X. Wang,
    P. Verma, M. H. Lechner, A. Jiang, S. Behnle, A. G. Heide,
    M. F. Herbst, and D. L. Poole

             Previous Authors, Complete List of Code Contributors,
                       and Citations for Specific Modules
    https://github.com/psi4/psi4/blob/master/codemeta.json
    https://github.com/psi4/psi4/graphs/contributors
    http://psicode.org/psi4manual/master/introduction.html#citing-psifour

    -----------------------------------------------------------------------


    Psi4 started on: Thursday, 27 February 2025 05:24PM

    Process ID: 30650
    Host:       Moses-MBP.lan
    PSIDATADIR: /Users/moseschung/miniconda3/envs/psi4/share/psi4
    Memory:     9.3 GiB
    Threads:    10
    
  ==> Input QCSchema <==

--------------------------------------------------------------------------
{'driver': 'energy',
 'extras': {'psiapi': True, 'wfn_qcvars_only': True},
 'id': None,
 'keywords': {'SCF_TYPE': 'DF', 'function_kwargs': {}},
 'model': {'basis': 'aug-cc-pvtz', 'method': 'mp2'},
 'molecule': {'atom_labels': ['', '', '', '', '', '', '', '', '', '', '', '', '', '', '', '', '', ''],
              'atomic_numbers': [6, 6, 8, 1, 1, 1, 1, 1, 1, 6, 6, 8, 1, 1, 1, 1, 1, 1],
              'extras': {},
              'fix_com': True,
              'fix_orientation': True,
              'fix_symmetry': 'c1',
              'fragment_charges': [0.0, 0.0],
              'fragment_multiplicities': [1, 1],
              'fragments': [[0, 1, 2, 3, 4, 5, 6, 7, 8], [9, 10, 11, 12, 13, 14, 15, 16, 17]],
              'geometry': [-3.813034573891168, 1.8520109714459407, 1.0129121005066504, -3.658426630936835,
                           -0.17729788454270437, -0.9771736000219919, -2.1582807743250165, -2.2526593662087566,
                           -0.20570991683896278, -2.818902571619317, -2.9128446367680767, 1.3517229872661098,
                           -4.941718855747866, 3.448273967976921, 0.3547337190925671, -1.9290815617466128,
                           2.5428929531871973, 1.499321936021119, -4.696615708097609, 1.1305891257911602,
                           2.736892237226698, -2.7642970454980875, 0.5482152181736923, -2.6927085506873683,
                           -5.554203659448379, -0.8234349310853704, -1.5175464547750344, 3.1641007326828237,
                           2.2404914196869337, -1.0145315957961678, 3.5492325862295058, 0.2489959834686998,
                           0.994901120804912, 3.2673232428337067, -2.2083358399361432, 0.05269879246064245,
                           1.4934826822934544, -2.4368963250841422, -0.338140033984922, 3.4156195005290098,
                           4.144071127370493, -0.253066453542936, 1.256359848071006, 2.1166198721631733,
                           -1.8050569464066901, 4.499917895150955, 1.9706007344490468, -2.563130030264725,
                           2.2519979620648463, 0.5950804260850464, 2.588749047347557, 5.463869081473119,
                           0.3796006251774667, 1.7656561566908944],
              'mass_numbers': [12, 12, 16, 1, 1, 1, 1, 1, 1, 12, 12, 16, 1, 1, 1, 1, 1, 1],
              'masses': [12.0, 12.0, 15.99491461957, 1.00782503223, 1.00782503223, 1.00782503223, 1.00782503223,
                         1.00782503223, 1.00782503223, 12.0, 12.0, 15.99491461957, 1.00782503223, 1.00782503223,
                         1.00782503223, 1.00782503223, 1.00782503223, 1.00782503223],
              'molecular_charge': 0.0,
              'molecular_multiplicity': 1,
              'name': 'dimer',
              'provenance': {'creator': 'QCElemental',
                             'routine': 'qcelemental.molparse.from_string',
                             'version': '0.29.0'},
              'real': [False, False, False, False, False, False, False, False, False, True, True, True, True, True,
                       True, True, True, True],
              'schema_name': 'qcschema_molecule',
              'schema_version': 2,
              'symbols': ['C', 'C', 'O', 'H', 'H', 'H', 'H', 'H', 'H', 'C', 'C', 'O', 'H', 'H', 'H', 'H', 'H', 'H'],
              'validated': True},
 'protocols': {'stdout': True},
 'provenance': {'creator': 'QCElemental', 'routine': 'qcelemental.models.results', 'version': '0.29.0'},
 'schema_name': 'qcschema_input',
 'schema_version': 1}
--------------------------------------------------------------------------

Scratch directory: /tmp/
   => Libint2 <=

    Primary   basis highest AM E, G, H:  6, 6, 3
    Auxiliary basis highest AM E, G, H:  7, 7, 4
    Onebody   basis highest AM E, G, H:  -, -, -
    Solid Harmonics ordering:            Gaussian

*** tstart() called on Moses-MBP.lan
*** at Thu Feb 27 17:24:46 2025

   => Loading Basis Set <=

    Name: AUG-CC-PVTZ
    Role: ORBITAL
    Keyword: BASIS
    atoms 1-2, 10-11 entry C          line   239 file /Users/moseschung/miniconda3/envs/psi4/share/psi4/basis/aug-cc-pvtz.gbs 
    atoms 3, 12      entry O          line   331 file /Users/moseschung/miniconda3/envs/psi4/share/psi4/basis/aug-cc-pvtz.gbs 
    atoms 4-9, 13-18 entry H          line    40 file /Users/moseschung/miniconda3/envs/psi4/share/psi4/basis/aug-cc-pvtz.gbs 


         ---------------------------------------------------------
                                   SCF
               by Justin Turney, Rob Parrish, Andy Simmonett
                          and Daniel G. A. Smith
                              RHF Reference
                       10 Threads,   9536 MiB Core
         ---------------------------------------------------------

  ==> Geometry <==

    Molecular point group: c1
    Full point group: C1

    Geometry (in Bohr), charge = 0, multiplicity = 1:

       Center              X                  Y                   Z               Mass       
    ------------   -----------------  -----------------  -----------------  -----------------
      Gh(C)          -3.813034573891     1.852010971446     1.012912100507    12.000000000000
      Gh(C)          -3.658426630937    -0.177297884543    -0.977173600022    12.000000000000
      Gh(O)          -2.158280774325    -2.252659366209    -0.205709916839    15.994914619570
      Gh(H)          -2.818902571619    -2.912844636768     1.351722987266     1.007825032230
      Gh(H)          -4.941718855748     3.448273967977     0.354733719093     1.007825032230
      Gh(H)          -1.929081561747     2.542892953187     1.499321936021     1.007825032230
      Gh(H)          -4.696615708098     1.130589125791     2.736892237227     1.007825032230
      Gh(H)          -2.764297045498     0.548215218174    -2.692708550687     1.007825032230
      Gh(H)          -5.554203659448    -0.823434931085    -1.517546454775     1.007825032230
         C            3.164100732683     2.240491419687    -1.014531595796    12.000000000000
         C            3.549232586230     0.248995983469     0.994901120805    12.000000000000
         O            3.267323242834    -2.208335839936     0.052698792461    15.994914619570
         H            1.493482682293    -2.436896325084    -0.338140033985     1.007825032230
         H            3.415619500529     4.144071127370    -0.253066453543     1.007825032230
         H            1.256359848071     2.116619872163    -1.805056946407     1.007825032230
         H            4.499917895151     1.970600734449    -2.563130030265     1.007825032230
         H            2.251997962065     0.595080426085     2.588749047348     1.007825032230
         H            5.463869081473     0.379600625177     1.765656156691     1.007825032230

  Running in c1 symmetry.

  Rotational constants: A =      0.14569  B =      0.05421  C =      0.04481 [cm^-1]
  Rotational constants: A =   4367.76291  B =   1625.24961  C =   1343.27336 [MHz]
  Nuclear repulsion =   82.195977810602315

  Charge       = 0
  Multiplicity = 1
  Electrons    = 26
  Nalpha       = 13
  Nbeta        = 13

  ==> Algorithm <==

  SCF Algorithm Type is DF.
  DIIS enabled.
  MOM disabled.
  Fractional occupation disabled.
  Guess Type is SAD.
  Energy threshold   = 1.00e-08
  Density threshold  = 1.00e-08
  Integral threshold = 1.00e-12

  ==> Primary Basis <==

  Basis Set: AUG-CC-PVTZ
    Blend: AUG-CC-PVTZ
    Number of shells: 192
    Number of basis functions: 552
    Number of Cartesian functions: 630
    Spherical Harmonics?: true
    Max angular momentum: 3

   => Loading Basis Set <=

    Name: (AUG-CC-PVTZ AUX)
    Role: JKFIT
    Keyword: DF_BASIS_SCF
    atoms 1-2, 10-11 entry C          line   162 file /Users/moseschung/miniconda3/envs/psi4/share/psi4/basis/aug-cc-pvtz-jkfit.gbs 
    atoms 3, 12      entry O          line   286 file /Users/moseschung/miniconda3/envs/psi4/share/psi4/basis/aug-cc-pvtz-jkfit.gbs 
    atoms 4-9, 13-18 entry H          line    70 file /Users/moseschung/miniconda3/envs/psi4/share/psi4/basis/aug-cc-pvtz-jkfit.gbs 

  ==> Integral Setup <==

  DFHelper Memory: AOs need 2.660 GiB; user supplied 6.985 GiB. 
  Using in-core AOs.

  ==> MemDFJK: Density-Fitted J/K Matrices <==

    J tasked:                   Yes
    K tasked:                   Yes
    wK tasked:                   No
    OpenMP threads:              10
    Memory [MiB]:              7152
    Algorithm:                 Core
    Schwarz Cutoff:           1E-12
    Mask sparsity (%):       3.9140
    Fitting Condition:        1E-10

   => Auxiliary Basis Set <=

  Basis Set: (AUG-CC-PVTZ AUX)
    Blend: AUG-CC-PVTZ-JKFIT
    Number of shells: 348
    Number of basis functions: 1176
    Number of Cartesian functions: 1446
    Spherical Harmonics?: true
    Max angular momentum: 4

  Minimum eigenvalue in the overlap matrix is 6.4383107350E-06.
  Reciprocal condition number of the overlap matrix is 3.2770125939E-07.
    Using symmetric orthogonalization.

  ==> Pre-Iterations <==

  SCF Guess: Superposition of Atomic Densities via on-the-fly atomic UHF (no occupation information).

   -------------------------
    Irrep   Nso     Nmo    
   -------------------------
     A        552     552 
   -------------------------
    Total     552     552
   -------------------------

  ==> Iterations <==

                           Total Energy        Delta E     RMS |[F,P]|

   @DF-RHF iter SAD:  -153.46133005541321   -1.53461e+02   0.00000e+00 
   @DF-RHF iter   1:  -154.00186092037944   -5.40531e-01   9.40027e-04 DIIS/ADIIS
   @DF-RHF iter   2:  -154.11417930997058   -1.12318e-01   4.98813e-04 DIIS/ADIIS
   @DF-RHF iter   3:  -154.14269110650048   -2.85118e-02   8.38768e-05 DIIS
   @DF-RHF iter   4:  -154.14427775360912   -1.58665e-03   3.22271e-05 DIIS
   @DF-RHF iter   5:  -154.14446500239100   -1.87249e-04   6.23383e-06 DIIS
   @DF-RHF iter   6:  -154.14447551293298   -1.05105e-05   1.43865e-06 DIIS
   @DF-RHF iter   7:  -154.14447625938251   -7.46450e-07   4.15222e-07 DIIS
   @DF-RHF iter   8:  -154.14447631582320   -5.64407e-08   1.29716e-07 DIIS
   @DF-RHF iter   9:  -154.14447632217181   -6.34861e-09   3.31136e-08 DIIS
   @DF-RHF iter  10:  -154.14447632262068   -4.48864e-10   6.61252e-09 DIIS
  Energy and wave function converged.


  ==> Post-Iterations <==

    Orbital Energies [Eh]
    ---------------------

    Doubly Occupied:                                                      

       1A    -20.557791     2A    -11.273328     3A    -11.216176  
       4A     -1.365240     5A     -1.012066     6A     -0.845208  
       7A     -0.692855     8A     -0.628237     9A     -0.603219  
      10A     -0.548190    11A     -0.526379    12A     -0.477200  
      13A     -0.442619  

    Virtual:                                                              

      14A      0.019057    15A      0.033668    16A      0.035302  
      17A      0.037770    18A      0.050738    19A      0.054006  
      20A      0.055166    21A      0.060249    22A      0.067301  
      23A      0.074529    24A      0.077351    25A      0.089198  
      26A      0.091060    27A      0.103059    28A      0.111445  
      29A      0.115426    30A      0.119852    31A      0.123051  
      32A      0.133198    33A      0.138965    34A      0.142310  
      35A      0.145296    36A      0.151860    37A      0.159764  
      38A      0.165942    39A      0.171788    40A      0.174402  
      41A      0.181837    42A      0.191826    43A      0.202414  
      44A      0.207606    45A      0.215235    46A      0.221832  
      47A      0.236210    48A      0.250258    49A      0.257512  
      50A      0.261789    51A      0.264491    52A      0.272005  
      53A      0.278868    54A      0.290565    55A      0.292318  
      56A      0.299869    57A      0.308846    58A      0.311426  
      59A      0.320751    60A      0.327849    61A      0.330246  
      62A      0.331904    63A      0.334407    64A      0.336563  
      65A      0.345514    66A      0.350362    67A      0.358246  
      68A      0.359733    69A      0.364093    70A      0.375497  
      71A      0.382667    72A      0.384434    73A      0.390205  
      74A      0.401391    75A      0.404085    76A      0.413018  
      77A      0.415852    78A      0.422863    79A      0.429717  
      80A      0.431609    81A      0.439037    82A      0.445614  
      83A      0.450975    84A      0.461734    85A      0.468056  
      86A      0.470370    87A      0.472690    88A      0.476208  
      89A      0.492052    90A      0.499353    91A      0.501491  
      92A      0.504004    93A      0.505383    94A      0.511115  
      95A      0.519785    96A      0.530560    97A      0.532146  
      98A      0.540405    99A      0.544871   100A      0.557530  
     101A      0.566416   102A      0.573276   103A      0.580270  
     104A      0.584394   105A      0.587521   106A      0.593704  
     107A      0.600106   108A      0.603917   109A      0.615435  
     110A      0.624527   111A      0.629067   112A      0.637327  
     113A      0.646084   114A      0.654121   115A      0.659623  
     116A      0.670328   117A      0.679917   118A      0.682811  
     119A      0.690307   120A      0.706749   121A      0.709805  
     122A      0.715953   123A      0.728579   124A      0.738306  
     125A      0.752308   126A      0.768372   127A      0.772601  
     128A      0.777835   129A      0.795569   130A      0.799119  
     131A      0.809195   132A      0.818905   133A      0.836212  
     134A      0.842431   135A      0.859544   136A      0.863411  
     137A      0.870250   138A      0.884068   139A      0.893446  
     140A      0.903836   141A      0.909506   142A      0.921948  
     143A      0.934414   144A      0.938564   145A      0.947857  
     146A      0.956375   147A      0.958544   148A      0.973275  
     149A      0.977029   150A      0.984079   151A      0.992300  
     152A      1.001856   153A      1.016603   154A      1.023369  
     155A      1.027457   156A      1.036672   157A      1.043652  
     158A      1.052761   159A      1.057028   160A      1.062989  
     161A      1.067212   162A      1.069951   163A      1.083396  
     164A      1.088583   165A      1.096266   166A      1.096555  
     167A      1.102131   168A      1.115357   169A      1.118746  
     170A      1.130687   171A      1.137788   172A      1.142269  
     173A      1.145619   174A      1.152725   175A      1.159270  
     176A      1.164977   177A      1.180038   178A      1.186110  
     179A      1.193325   180A      1.195489   181A      1.211431  
     182A      1.218251   183A      1.221547   184A      1.224520  
     185A      1.235605   186A      1.242139   187A      1.247259  
     188A      1.260401   189A      1.268544   190A      1.276566  
     191A      1.280151   192A      1.293506   193A      1.302890  
     194A      1.311774   195A      1.313451   196A      1.325504  
     197A      1.336972   198A      1.340573   199A      1.350353  
     200A      1.360082   201A      1.367517   202A      1.372287  
     203A      1.380112   204A      1.399696   205A      1.403321  
     206A      1.407379   207A      1.411633   208A      1.413816  
     209A      1.420459   210A      1.427452   211A      1.438171  
     212A      1.460752   213A      1.470403   214A      1.472167  
     215A      1.490172   216A      1.496147   217A      1.498484  
     218A      1.512678   219A      1.529189   220A      1.537842  
     221A      1.544913   222A      1.558044   223A      1.559954  
     224A      1.569810   225A      1.584521   226A      1.597994  
     227A      1.606048   228A      1.613408   229A      1.624569  
     230A      1.636428   231A      1.650704   232A      1.664823  
     233A      1.680842   234A      1.686217   235A      1.691667  
     236A      1.709431   237A      1.713857   238A      1.732486  
     239A      1.739606   240A      1.746433   241A      1.756912  
     242A      1.763722   243A      1.781749   244A      1.792056  
     245A      1.813199   246A      1.816672   247A      1.823199  
     248A      1.835191   249A      1.843748   250A      1.863368  
     251A      1.868317   252A      1.873329   253A      1.888481  
     254A      1.894428   255A      1.916663   256A      1.921950  
     257A      1.932177   258A      1.937707   259A      1.958720  
     260A      1.971451   261A      1.974405   262A      1.980021  
     263A      1.990998   264A      2.011619   265A      2.016950  
     266A      2.023761   267A      2.037086   268A      2.061944  
     269A      2.066141   270A      2.087507   271A      2.092393  
     272A      2.113966   273A      2.138179   274A      2.143733  
     275A      2.144874   276A      2.157080   277A      2.165290  
     278A      2.170219   279A      2.185257   280A      2.203276  
     281A      2.213602   282A      2.231531   283A      2.237185  
     284A      2.248173   285A      2.267013   286A      2.277919  
     287A      2.292233   288A      2.309345   289A      2.317266  
     290A      2.327837   291A      2.328749   292A      2.354284  
     293A      2.375661   294A      2.383030   295A      2.408424  
     296A      2.431319   297A      2.440662   298A      2.471487  
     299A      2.491387   300A      2.519848   301A      2.520552  
     302A      2.532664   303A      2.569863   304A      2.587049  
     305A      2.604937   306A      2.622866   307A      2.632904  
     308A      2.665339   309A      2.685693   310A      2.712182  
     311A      2.732045   312A      2.738166   313A      2.759922  
     314A      2.796951   315A      2.803885   316A      2.809279  
     317A      2.824100   318A      2.838438   319A      2.862249  
     320A      2.893720   321A      2.913206   322A      2.918336  
     323A      2.959076   324A      2.961349   325A      2.998112  
     326A      3.026446   327A      3.067580   328A      3.073594  
     329A      3.095777   330A      3.141514   331A      3.156979  
     332A      3.182798   333A      3.189741   334A      3.223372  
     335A      3.284558   336A      3.314816   337A      3.322424  
     338A      3.355680   339A      3.374719   340A      3.400911  
     341A      3.450734   342A      3.460616   343A      3.486566  
     344A      3.516552   345A      3.525785   346A      3.567856  
     347A      3.579738   348A      3.622888   349A      3.647494  
     350A      3.653955   351A      3.704654   352A      3.716486  
     353A      3.732334   354A      3.737491   355A      3.779978  
     356A      3.788218   357A      3.808815   358A      3.819676  
     359A      3.840829   360A      3.854595   361A      3.884602  
     362A      3.909333   363A      3.946467   364A      3.968668  
     365A      3.999947   366A      4.008647   367A      4.020239  
     368A      4.051244   369A      4.065215   370A      4.096103  
     371A      4.113559   372A      4.125409   373A      4.142782  
     374A      4.160531   375A      4.170885   376A      4.188186  
     377A      4.191014   378A      4.206059   379A      4.219086  
     380A      4.228881   381A      4.237556   382A      4.258943  
     383A      4.283063   384A      4.298948   385A      4.315328  
     386A      4.344543   387A      4.349714   388A      4.380538  
     389A      4.381519   390A      4.401662   391A      4.415607  
     392A      4.428434   393A      4.449919   394A      4.462321  
     395A      4.480191   396A      4.510103   397A      4.532410  
     398A      4.538549   399A      4.551132   400A      4.571771  
     401A      4.583727   402A      4.605799   403A      4.620378  
     404A      4.622837   405A      4.642933   406A      4.655670  
     407A      4.667417   408A      4.677321   409A      4.707792  
     410A      4.724647   411A      4.745957   412A      4.749863  
     413A      4.764768   414A      4.779910   415A      4.805240  
     416A      4.824520   417A      4.834618   418A      4.857356  
     419A      4.871337   420A      4.886273   421A      4.913133  
     422A      4.923626   423A      4.930591   424A      4.951120  
     425A      4.956159   426A      4.975927   427A      4.979929  
     428A      5.019503   429A      5.032568   430A      5.039329  
     431A      5.052340   432A      5.059411   433A      5.065735  
     434A      5.077645   435A      5.107939   436A      5.150884  
     437A      5.161163   438A      5.180064   439A      5.207487  
     440A      5.215435   441A      5.231845   442A      5.243374  
     443A      5.263038   444A      5.295516   445A      5.328367  
     446A      5.339495   447A      5.356464   448A      5.377001  
     449A      5.393807   450A      5.401267   451A      5.413697  
     452A      5.422142   453A      5.441278   454A      5.457982  
     455A      5.499002   456A      5.504598   457A      5.541395  
     458A      5.555982   459A      5.571568   460A      5.575854  
     461A      5.587887   462A      5.603832   463A      5.623573  
     464A      5.646025   465A      5.662810   466A      5.671787  
     467A      5.695196   468A      5.701833   469A      5.719597  
     470A      5.742188   471A      5.778685   472A      5.792793  
     473A      5.816831   474A      5.831257   475A      5.853843  
     476A      5.881984   477A      5.935932   478A      5.988891  
     479A      6.022912   480A      6.032501   481A      6.057240  
     482A      6.095265   483A      6.142238   484A      6.164961  
     485A      6.204558   486A      6.222254   487A      6.229334  
     488A      6.253247   489A      6.289199   490A      6.300556  
     491A      6.315724   492A      6.386101   493A      6.414639  
     494A      6.479632   495A      6.501635   496A      6.735636  
     497A      6.798785   498A      6.802412   499A      6.820353  
     500A      6.847990   501A      6.906290   502A      6.985341  
     503A      7.014970   504A      7.022047   505A      7.039943  
     506A      7.102954   507A      7.139944   508A      7.168318  
     509A      7.206010   510A      7.360769   511A      7.412772  
     512A      7.437734   513A      7.568937   514A      7.579492  
     515A      7.666509   516A      7.780403   517A      7.829458  
     518A      7.858621   519A      7.874657   520A      7.887179  
     521A      7.947816   522A      8.034714   523A      8.043383  
     524A      8.081391   525A      8.175652   526A      8.201338  
     527A      8.273814   528A      8.304422   529A      8.344600  
     530A      8.387238   531A      8.435937   532A      8.586785  
     533A      8.755544   534A      8.905050   535A      9.019639  
     536A     10.048993   537A     10.112540   538A     10.255067  
     539A     10.387241   540A     10.691858   541A     10.733483  
     542A     11.065429   543A     12.067060   544A     12.583666  
     545A     13.339672   546A     14.114817   547A     16.781148  
     548A     17.942525   549A     18.882657   550A     52.903470  
     551A     54.566074   552A     67.556984  

    Final Occupation by Irrep:
              A 
    DOCC [    13 ]
    NA   [    13 ]
    NB   [    13 ]

  @DF-RHF Final Energy:  -154.14447632262068

   => Energetics <=

    Nuclear Repulsion Energy =             82.1959778106023151
    One-Electron Energy =                -372.3038934445705763
    Two-Electron Energy =                 135.9634393113475994
    Total Energy =                       -154.1444763226206760

Computation Completed


Properties will be evaluated at   0.000000,   0.000000,   0.000000 [a0]

Properties computed using the SCF density matrix


 Multipole Moments:

 ------------------------------------------------------------------------------------
     Multipole            Electronic (a.u.)      Nuclear  (a.u.)        Total (a.u.)
 ------------------------------------------------------------------------------------

 L = 1.  Multiply by 2.5417464519 to convert [e a0] to [Debye]
 Dipole X            :        -85.2906706           84.7998328           -0.4908378
 Dipole Y            :         -3.5473320            4.0393142            0.4919822
 Dipole Z            :          0.3631553           -0.3011808            0.0619745
 Magnitude           :                                                    0.6977170

 ------------------------------------------------------------------------------------

*** tstop() called on Moses-MBP.lan at Thu Feb 27 17:24:56 2025
Module time:
	user time   =      72.58 seconds =       1.21 minutes
	system time =       5.95 seconds =       0.10 minutes
	total time  =         10 seconds =       0.17 minutes
Total time:
	user time   =      72.58 seconds =       1.21 minutes
	system time =       5.95 seconds =       0.10 minutes
	total time  =         10 seconds =       0.17 minutes

*** tstart() called on Moses-MBP.lan
*** at Thu Feb 27 17:24:56 2025


  //>>>>>>>>>>>>>>>>>>>>>>>>>>>>>>>>>>>//
  //               DFMP2               //
  //<<<<<<<<<<<<<<<<<<<<<<<<<<<<<<<<<<<//

   => Loading Basis Set <=

    Name: (AUG-CC-PVTZ AUX)
    Role: RIFIT
    Keyword: DF_BASIS_MP2
    atoms 1-2, 10-11 entry C          line   148 file /Users/moseschung/miniconda3/envs/psi4/share/psi4/basis/aug-cc-pvtz-ri.gbs 
    atoms 3, 12      entry O          line   264 file /Users/moseschung/miniconda3/envs/psi4/share/psi4/basis/aug-cc-pvtz-ri.gbs 
    atoms 4-9, 13-18 entry H          line    30 file /Users/moseschung/miniconda3/envs/psi4/share/psi4/basis/aug-cc-pvtz-ri.gbs 

	 --------------------------------------------------------
	                          DF-MP2                         
	      2nd-Order Density-Fitted Moller-Plesset Theory     
	              RMP2 Wavefunction,  10 Threads             
	                                                         
	        Rob Parrish, Justin Turney, Andy Simmonett,      
	           Ed Hohenstein, and C. David Sherrill          
	 --------------------------------------------------------

   => Auxiliary Basis Set <=

  Basis Set: (AUG-CC-PVTZ AUX)
    Blend: AUG-CC-PVTZ-RI
    Number of shells: 336
    Number of basis functions: 1188
    Number of Cartesian functions: 1476
    Spherical Harmonics?: true
    Max angular momentum: 4

	 --------------------------------------------------------
	                 NBF =   552, NAUX =  1188
	 --------------------------------------------------------
	   CLASS    FOCC     OCC    AOCC    AVIR     VIR    FVIR
	   PAIRS       0      13      13     539     539       0
	 --------------------------------------------------------

	-----------------------------------------------------------
	 ==================> DF-MP2 Energies <==================== 
	-----------------------------------------------------------
	 Reference Energy          =    -154.1444763226206760 [Eh]
	 Singles Energy            =      -0.0000000000000000 [Eh]
	 Same-Spin Energy          =      -0.1482962700396069 [Eh]
	 Opposite-Spin Energy      =      -0.5189303001018665 [Eh]
	 Correlation Energy        =      -0.6672265701414734 [Eh]
	 Total Energy              =    -154.8117028927621561 [Eh]
	-----------------------------------------------------------
	 ================> DF-SCS-MP2 Energies <================== 
	-----------------------------------------------------------
	 SCS Same-Spin Scale       =       0.3333333333333333 [-]
	 SCS Opposite-Spin Scale   =       1.2000000000000000 [-]
	 SCS Same-Spin Energy      =      -0.0494320900132023 [Eh]
	 SCS Opposite-Spin Energy  =      -0.6227163601222397 [Eh]
	 SCS Correlation Energy    =      -0.6721484501354420 [Eh]
	 SCS Total Energy          =    -154.8166247727561142 [Eh]
	-----------------------------------------------------------


*** tstop() called on Moses-MBP.lan at Thu Feb 27 17:24:59 2025
Module time:
	user time   =      20.15 seconds =       0.34 minutes
	system time =       1.94 seconds =       0.03 minutes
	total time  =          3 seconds =       0.05 minutes
Total time:
	user time   =      92.74 seconds =       1.55 minutes
	system time =       7.89 seconds =       0.13 minutes
	total time  =         13 seconds =       0.22 minutes

    Psi4 stopped on: Thursday, 27 February 2025 05:24PM
    Psi4 wall time for execution: 0:00:12.77


    -----------------------------------------------------------------------
          Psi4: An Open-Source Ab Initio Electronic Structure Package
                               Psi4 1.9.1 release

                         Git: Rev {} zzzzzzz 


    D. G. A. Smith, L. A. Burns, A. C. Simmonett, R. M. Parrish,
    M. C. Schieber, R. Galvelis, P. Kraus, H. Kruse, R. Di Remigio,
    A. Alenaizan, A. M. James, S. Lehtola, J. P. Misiewicz, M. Scheurer,
    R. A. Shaw, J. B. Schriber, Y. Xie, Z. L. Glick, D. A. Sirianni,
    J. S. O'Brien, J. M. Waldrop, A. Kumar, E. G. Hohenstein,
    B. P. Pritchard, B. R. Brooks, H. F. Schaefer III, A. Yu. Sokolov,
    K. Patkowski, A. E. DePrince III, U. Bozkaya, R. A. King,
    F. A. Evangelista, J. M. Turney, T. D. Crawford, C. D. Sherrill,
    J. Chem. Phys. 152(18) 184108 (2020). https://doi.org/10.1063/5.0006002

                            Additional Code Authors
    E. T. Seidl, C. L. Janssen, E. F. Valeev, M. L. Leininger,
    J. F. Gonthier, R. M. Richard, H. R. McAlexander, M. Saitow, X. Wang,
    P. Verma, M. H. Lechner, A. Jiang, S. Behnle, A. G. Heide,
    M. F. Herbst, and D. L. Poole

             Previous Authors, Complete List of Code Contributors,
                       and Citations for Specific Modules
    https://github.com/psi4/psi4/blob/master/codemeta.json
    https://github.com/psi4/psi4/graphs/contributors
    http://psicode.org/psi4manual/master/introduction.html#citing-psifour

    -----------------------------------------------------------------------


    Psi4 started on: Thursday, 27 February 2025 05:24PM

    Process ID: 30650
    Host:       Moses-MBP.lan
    PSIDATADIR: /Users/moseschung/miniconda3/envs/psi4/share/psi4
    Memory:     9.3 GiB
    Threads:    10
    
  ==> Input QCSchema <==

--------------------------------------------------------------------------
{'driver': 'energy',
 'extras': {'psiapi': True, 'wfn_qcvars_only': True},
 'id': None,
 'keywords': {'SCF_TYPE': 'DF', 'function_kwargs': {}},
 'model': {'basis': 'aug-cc-pvtz', 'method': 'mp2'},
 'molecule': {'atom_labels': ['', '', '', '', '', '', '', '', '', '', '', '', '', '', '', '', '', ''],
              'atomic_numbers': [6, 6, 8, 1, 1, 1, 1, 1, 1, 6, 6, 8, 1, 1, 1, 1, 1, 1],
              'extras': {},
              'fix_com': True,
              'fix_orientation': True,
              'fix_symmetry': 'c1',
              'fragment_charges': [0.0, 0.0],
              'fragment_multiplicities': [1, 1],
              'fragments': [[0, 1, 2, 3, 4, 5, 6, 7, 8], [9, 10, 11, 12, 13, 14, 15, 16, 17]],
              'geometry': [-3.813034573891168, 1.8520109714459407, 1.0129121005066504, -3.658426630936835,
                           -0.17729788454270437, -0.9771736000219919, -2.1582807743250165, -2.2526593662087566,
                           -0.20570991683896278, -2.818902571619317, -2.9128446367680767, 1.3517229872661098,
                           -4.941718855747866, 3.448273967976921, 0.3547337190925671, -1.9290815617466128,
                           2.5428929531871973, 1.499321936021119, -4.696615708097609, 1.1305891257911602,
                           2.736892237226698, -2.7642970454980875, 0.5482152181736923, -2.6927085506873683,
                           -5.554203659448379, -0.8234349310853704, -1.5175464547750344, 3.1641007326828237,
                           2.2404914196869337, -1.0145315957961678, 3.5492325862295058, 0.2489959834686998,
                           0.994901120804912, 3.2673232428337067, -2.2083358399361432, 0.05269879246064245,
                           1.4934826822934544, -2.4368963250841422, -0.338140033984922, 3.4156195005290098,
                           4.144071127370493, -0.253066453542936, 1.256359848071006, 2.1166198721631733,
                           -1.8050569464066901, 4.499917895150955, 1.9706007344490468, -2.563130030264725,
                           2.2519979620648463, 0.5950804260850464, 2.588749047347557, 5.463869081473119,
                           0.3796006251774667, 1.7656561566908944],
              'mass_numbers': [12, 12, 16, 1, 1, 1, 1, 1, 1, 12, 12, 16, 1, 1, 1, 1, 1, 1],
              'masses': [12.0, 12.0, 15.99491461957, 1.00782503223, 1.00782503223, 1.00782503223, 1.00782503223,
                         1.00782503223, 1.00782503223, 12.0, 12.0, 15.99491461957, 1.00782503223, 1.00782503223,
                         1.00782503223, 1.00782503223, 1.00782503223, 1.00782503223],
              'molecular_charge': 0.0,
              'molecular_multiplicity': 1,
              'name': 'dimer',
              'provenance': {'creator': 'QCElemental',
                             'routine': 'qcelemental.molparse.from_string',
                             'version': '0.29.0'},
              'real': [True, True, True, True, True, True, True, True, True, False, False, False, False, False, False,
                       False, False, False],
              'schema_name': 'qcschema_molecule',
              'schema_version': 2,
              'symbols': ['C', 'C', 'O', 'H', 'H', 'H', 'H', 'H', 'H', 'C', 'C', 'O', 'H', 'H', 'H', 'H', 'H', 'H'],
              'validated': True},
 'protocols': {'stdout': True},
 'provenance': {'creator': 'QCElemental', 'routine': 'qcelemental.models.results', 'version': '0.29.0'},
 'schema_name': 'qcschema_input',
 'schema_version': 1}
--------------------------------------------------------------------------

Scratch directory: /tmp/
   => Libint2 <=

    Primary   basis highest AM E, G, H:  6, 6, 3
    Auxiliary basis highest AM E, G, H:  7, 7, 4
    Onebody   basis highest AM E, G, H:  -, -, -
    Solid Harmonics ordering:            Gaussian

*** tstart() called on Moses-MBP.lan
*** at Thu Feb 27 17:24:59 2025

   => Loading Basis Set <=

    Name: AUG-CC-PVTZ
    Role: ORBITAL
    Keyword: BASIS
    atoms 1-2, 10-11 entry C          line   239 file /Users/moseschung/miniconda3/envs/psi4/share/psi4/basis/aug-cc-pvtz.gbs 
    atoms 3, 12      entry O          line   331 file /Users/moseschung/miniconda3/envs/psi4/share/psi4/basis/aug-cc-pvtz.gbs 
    atoms 4-9, 13-18 entry H          line    40 file /Users/moseschung/miniconda3/envs/psi4/share/psi4/basis/aug-cc-pvtz.gbs 


         ---------------------------------------------------------
                                   SCF
               by Justin Turney, Rob Parrish, Andy Simmonett
                          and Daniel G. A. Smith
                              RHF Reference
                       10 Threads,   9536 MiB Core
         ---------------------------------------------------------

  ==> Geometry <==

    Molecular point group: c1
    Full point group: C1

    Geometry (in Bohr), charge = 0, multiplicity = 1:

       Center              X                  Y                   Z               Mass       
    ------------   -----------------  -----------------  -----------------  -----------------
         C           -3.813034573891     1.852010971446     1.012912100507    12.000000000000
         C           -3.658426630937    -0.177297884543    -0.977173600022    12.000000000000
         O           -2.158280774325    -2.252659366209    -0.205709916839    15.994914619570
         H           -2.818902571619    -2.912844636768     1.351722987266     1.007825032230
         H           -4.941718855748     3.448273967977     0.354733719093     1.007825032230
         H           -1.929081561747     2.542892953187     1.499321936021     1.007825032230
         H           -4.696615708098     1.130589125791     2.736892237227     1.007825032230
         H           -2.764297045498     0.548215218174    -2.692708550687     1.007825032230
         H           -5.554203659448    -0.823434931085    -1.517546454775     1.007825032230
      Gh(C)           3.164100732683     2.240491419687    -1.014531595796    12.000000000000
      Gh(C)           3.549232586230     0.248995983469     0.994901120805    12.000000000000
      Gh(O)           3.267323242834    -2.208335839936     0.052698792461    15.994914619570
      Gh(H)           1.493482682293    -2.436896325084    -0.338140033985     1.007825032230
      Gh(H)           3.415619500529     4.144071127370    -0.253066453543     1.007825032230
      Gh(H)           1.256359848071     2.116619872163    -1.805056946407     1.007825032230
      Gh(H)           4.499917895151     1.970600734449    -2.563130030265     1.007825032230
      Gh(H)           2.251997962065     0.595080426085     2.588749047348     1.007825032230
      Gh(H)           5.463869081473     0.379600625177     1.765656156691     1.007825032230

  Running in c1 symmetry.

  Rotational constants: A =      0.14569  B =      0.05421  C =      0.04481 [cm^-1]
  Rotational constants: A =   4367.76291  B =   1625.24961  C =   1343.27336 [MHz]
  Nuclear repulsion =   82.074442996676581

  Charge       = 0
  Multiplicity = 1
  Electrons    = 26
  Nalpha       = 13
  Nbeta        = 13

  ==> Algorithm <==

  SCF Algorithm Type is DF.
  DIIS enabled.
  MOM disabled.
  Fractional occupation disabled.
  Guess Type is SAD.
  Energy threshold   = 1.00e-08
  Density threshold  = 1.00e-08
  Integral threshold = 1.00e-12

  ==> Primary Basis <==

  Basis Set: AUG-CC-PVTZ
    Blend: AUG-CC-PVTZ
    Number of shells: 192
    Number of basis functions: 552
    Number of Cartesian functions: 630
    Spherical Harmonics?: true
    Max angular momentum: 3

   => Loading Basis Set <=

    Name: (AUG-CC-PVTZ AUX)
    Role: JKFIT
    Keyword: DF_BASIS_SCF
    atoms 1-2, 10-11 entry C          line   162 file /Users/moseschung/miniconda3/envs/psi4/share/psi4/basis/aug-cc-pvtz-jkfit.gbs 
    atoms 3, 12      entry O          line   286 file /Users/moseschung/miniconda3/envs/psi4/share/psi4/basis/aug-cc-pvtz-jkfit.gbs 
    atoms 4-9, 13-18 entry H          line    70 file /Users/moseschung/miniconda3/envs/psi4/share/psi4/basis/aug-cc-pvtz-jkfit.gbs 

  ==> Integral Setup <==

  DFHelper Memory: AOs need 2.660 GiB; user supplied 6.985 GiB. 
  Using in-core AOs.

  ==> MemDFJK: Density-Fitted J/K Matrices <==

    J tasked:                   Yes
    K tasked:                   Yes
    wK tasked:                   No
    OpenMP threads:              10
    Memory [MiB]:              7152
    Algorithm:                 Core
    Schwarz Cutoff:           1E-12
    Mask sparsity (%):       3.9140
    Fitting Condition:        1E-10

   => Auxiliary Basis Set <=

  Basis Set: (AUG-CC-PVTZ AUX)
    Blend: AUG-CC-PVTZ-JKFIT
    Number of shells: 348
    Number of basis functions: 1176
    Number of Cartesian functions: 1446
    Spherical Harmonics?: true
    Max angular momentum: 4

  Minimum eigenvalue in the overlap matrix is 6.4383107350E-06.
  Reciprocal condition number of the overlap matrix is 3.2770125939E-07.
    Using symmetric orthogonalization.

  ==> Pre-Iterations <==

  SCF Guess: Superposition of Atomic Densities via on-the-fly atomic UHF (no occupation information).

   -------------------------
    Irrep   Nso     Nmo    
   -------------------------
     A        552     552 
   -------------------------
    Total     552     552
   -------------------------

  ==> Iterations <==

                           Total Energy        Delta E     RMS |[F,P]|

   @DF-RHF iter SAD:  -153.44774225453793   -1.53448e+02   0.00000e+00 
   @DF-RHF iter   1:  -154.00362399623413   -5.55882e-01   9.37718e-04 DIIS/ADIIS
   @DF-RHF iter   2:  -154.11536972239398   -1.11746e-01   4.96433e-04 DIIS/ADIIS
   @DF-RHF iter   3:  -154.14339667519792   -2.80270e-02   8.40482e-05 DIIS
   @DF-RHF iter   4:  -154.14497580008677   -1.57912e-03   3.22129e-05 DIIS
   @DF-RHF iter   5:  -154.14516327426128   -1.87474e-04   6.20980e-06 DIIS
   @DF-RHF iter   6:  -154.14517353848660   -1.02642e-05   1.42269e-06 DIIS
   @DF-RHF iter   7:  -154.14517427083672   -7.32350e-07   4.05909e-07 DIIS
   @DF-RHF iter   8:  -154.14517432607852   -5.52418e-08   1.28840e-07 DIIS
   @DF-RHF iter   9:  -154.14517433232760   -6.24908e-09   3.31109e-08 DIIS
   @DF-RHF iter  10:  -154.14517433276708   -4.39485e-10   6.32059e-09 DIIS
  Energy and wave function converged.


  ==> Post-Iterations <==

    Orbital Energies [Eh]
    ---------------------

    Doubly Occupied:                                                      

       1A    -20.554448     2A    -11.273622     3A    -11.218706  
       4A     -1.359285     5A     -1.015079     6A     -0.848803  
       7A     -0.685476     8A     -0.625145     9A     -0.612286  
      10A     -0.543775    11A     -0.525914    12A     -0.481230  
      13A     -0.443185  

    Virtual:                                                              

      14A      0.024769    15A      0.033144    16A      0.035218  
      17A      0.039034    18A      0.050844    19A      0.054021  
      20A      0.055817    21A      0.061186    22A      0.068145  
      23A      0.076715    24A      0.081799    25A      0.085120  
      26A      0.103360    27A      0.108139    28A      0.113367  
      29A      0.117986    30A      0.119830    31A      0.129906  
      32A      0.134770    33A      0.137305    34A      0.143249  
      35A      0.146313    36A      0.155354    37A      0.162653  
      38A      0.167694    39A      0.169948    40A      0.173044  
      41A      0.182338    42A      0.201372    43A      0.205904  
      44A      0.210344    45A      0.217947    46A      0.219851  
      47A      0.242080    48A      0.250524    49A      0.256688  
      50A      0.262661    51A      0.271467    52A      0.281365  
      53A      0.282483    54A      0.289134    55A      0.295784  
      56A      0.303939    57A      0.309388    58A      0.318088  
      59A      0.322787    60A      0.327520    61A      0.332432  
      62A      0.337923    63A      0.342244    64A      0.343839  
      65A      0.349273    66A      0.352776    67A      0.359226  
      68A      0.364222    69A      0.374097    70A      0.376091  
      71A      0.383059    72A      0.389177    73A      0.399429  
      74A      0.407518    75A      0.410536    76A      0.414533  
      77A      0.420694    78A      0.428109    79A      0.431109  
      80A      0.437431    81A      0.442428    82A      0.448796  
      83A      0.456118    84A      0.462865    85A      0.467856  
      86A      0.472068    87A      0.477828    88A      0.482412  
      89A      0.486322    90A      0.494626    91A      0.497529  
      92A      0.510093    93A      0.517477    94A      0.517826  
      95A      0.525933    96A      0.533206    97A      0.545160  
      98A      0.547720    99A      0.549851   100A      0.557309  
     101A      0.562907   102A      0.572041   103A      0.576386  
     104A      0.585091   105A      0.590102   106A      0.603750  
     107A      0.609597   108A      0.614640   109A      0.625626  
     110A      0.629860   111A      0.633967   112A      0.639618  
     113A      0.648459   114A      0.656128   115A      0.666718  
     116A      0.669796   117A      0.678501   118A      0.690354  
     119A      0.696131   120A      0.704253   121A      0.719545  
     122A      0.727241   123A      0.730272   124A      0.746146  
     125A      0.753136   126A      0.772563   127A      0.780823  
     128A      0.798147   129A      0.812025   130A      0.828098  
     131A      0.833219   132A      0.839354   133A      0.855431  
     134A      0.859277   135A      0.860054   136A      0.876975  
     137A      0.881997   138A      0.886993   139A      0.897272  
     140A      0.913454   141A      0.919854   142A      0.923026  
     143A      0.933217   144A      0.937170   145A      0.948512  
     146A      0.959799   147A      0.968361   148A      0.974390  
     149A      0.982993   150A      0.988020   151A      0.993205  
     152A      1.009698   153A      1.020267   154A      1.024125  
     155A      1.037208   156A      1.042510   157A      1.044732  
     158A      1.049496   159A      1.056470   160A      1.068384  
     161A      1.071324   162A      1.076815   163A      1.085668  
     164A      1.092183   165A      1.098837   166A      1.108887  
     167A      1.115340   168A      1.119200   169A      1.130235  
     170A      1.138372   171A      1.145725   172A      1.148162  
     173A      1.148718   174A      1.153270   175A      1.162266  
     176A      1.168238   177A      1.178876   178A      1.190125  
     179A      1.196661   180A      1.201275   181A      1.206640  
     182A      1.220358   183A      1.225785   184A      1.234103  
     185A      1.238821   186A      1.240681   187A      1.257141  
     188A      1.263208   189A      1.266362   190A      1.281127  
     191A      1.289759   192A      1.296752   193A      1.303021  
     194A      1.313399   195A      1.325996   196A      1.329903  
     197A      1.340513   198A      1.352374   199A      1.354930  
     200A      1.357685   201A      1.365215   202A      1.380283  
     203A      1.385883   204A      1.394758   205A      1.407789  
     206A      1.414998   207A      1.429194   208A      1.433181  
     209A      1.438867   210A      1.449619   211A      1.462738  
     212A      1.475492   213A      1.481834   214A      1.492026  
     215A      1.502758   216A      1.504531   217A      1.512411  
     218A      1.521233   219A      1.531224   220A      1.558598  
     221A      1.560359   222A      1.571350   223A      1.578711  
     224A      1.583038   225A      1.604233   226A      1.613063  
     227A      1.632376   228A      1.638671   229A      1.654269  
     230A      1.663302   231A      1.669028   232A      1.673629  
     233A      1.684483   234A      1.692304   235A      1.697029  
     236A      1.717463   237A      1.724044   238A      1.736131  
     239A      1.744177   240A      1.749036   241A      1.768469  
     242A      1.776513   243A      1.792830   244A      1.802144  
     245A      1.814112   246A      1.828174   247A      1.837341  
     248A      1.842641   249A      1.850723   250A      1.854888  
     251A      1.865818   252A      1.877950   253A      1.894302  
     254A      1.919718   255A      1.928473   256A      1.937390  
     257A      1.949598   258A      1.950970   259A      1.969257  
     260A      1.978697   261A      1.982262   262A      1.999642  
     263A      2.010879   264A      2.024133   265A      2.030334  
     266A      2.045035   267A      2.061174   268A      2.066464  
     269A      2.086948   270A      2.096745   271A      2.105842  
     272A      2.115023   273A      2.125236   274A      2.142595  
     275A      2.147284   276A      2.171550   277A      2.181792  
     278A      2.185143   279A      2.203161   280A      2.207241  
     281A      2.233271   282A      2.253404   283A      2.261127  
     284A      2.266934   285A      2.277204   286A      2.283008  
     287A      2.296988   288A      2.312173   289A      2.319284  
     290A      2.338449   291A      2.358196   292A      2.378713  
     293A      2.383096   294A      2.401423   295A      2.425472  
     296A      2.434443   297A      2.446206   298A      2.461394  
     299A      2.467673   300A      2.492437   301A      2.516356  
     302A      2.533825   303A      2.580418   304A      2.593838  
     305A      2.618660   306A      2.652764   307A      2.668865  
     308A      2.687245   309A      2.700809   310A      2.717145  
     311A      2.741017   312A      2.756656   313A      2.784705  
     314A      2.795630   315A      2.798294   316A      2.819303  
     317A      2.845272   318A      2.862788   319A      2.868656  
     320A      2.900053   321A      2.922316   322A      2.948464  
     323A      2.961412   324A      2.982069   325A      3.004575  
     326A      3.039208   327A      3.057140   328A      3.090537  
     329A      3.093914   330A      3.160535   331A      3.172465  
     332A      3.189726   333A      3.227509   334A      3.251539  
     335A      3.273845   336A      3.279352   337A      3.311389  
     338A      3.410661   339A      3.425307   340A      3.458007  
     341A      3.477135   342A      3.503282   343A      3.515021  
     344A      3.520132   345A      3.548985   346A      3.586422  
     347A      3.641664   348A      3.658633   349A      3.676380  
     350A      3.703875   351A      3.720639   352A      3.734029  
     353A      3.742111   354A      3.762007   355A      3.776741  
     356A      3.797436   357A      3.816345   358A      3.834447  
     359A      3.863688   360A      3.885542   361A      3.917552  
     362A      3.937354   363A      3.971999   364A      3.991855  
     365A      3.994437   366A      4.002501   367A      4.024668  
     368A      4.040898   369A      4.053125   370A      4.080744  
     371A      4.092783   372A      4.127985   373A      4.150449  
     374A      4.157895   375A      4.180462   376A      4.189455  
     377A      4.203475   378A      4.208017   379A      4.218797  
     380A      4.236678   381A      4.259189   382A      4.277140  
     383A      4.286385   384A      4.300123   385A      4.306908  
     386A      4.328015   387A      4.333476   388A      4.367695  
     389A      4.373456   390A      4.417186   391A      4.427759  
     392A      4.457112   393A      4.465585   394A      4.479985  
     395A      4.491141   396A      4.503760   397A      4.523170  
     398A      4.541968   399A      4.574501   400A      4.583097  
     401A      4.611123   402A      4.617100   403A      4.626030  
     404A      4.653104   405A      4.675736   406A      4.686583  
     407A      4.696293   408A      4.698035   409A      4.725458  
     410A      4.730803   411A      4.742501   412A      4.764994  
     413A      4.780312   414A      4.803149   415A      4.816408  
     416A      4.849903   417A      4.868880   418A      4.870180  
     419A      4.895948   420A      4.898643   421A      4.906449  
     422A      4.924558   423A      4.930472   424A      4.956889  
     425A      4.958647   426A      4.975751   427A      4.982690  
     428A      5.023050   429A      5.026480   430A      5.036537  
     431A      5.054214   432A      5.077912   433A      5.090324  
     434A      5.099315   435A      5.118349   436A      5.145842  
     437A      5.160516   438A      5.186107   439A      5.202256  
     440A      5.205228   441A      5.239740   442A      5.251481  
     443A      5.275711   444A      5.292063   445A      5.313724  
     446A      5.334624   447A      5.378785   448A      5.395452  
     449A      5.400666   450A      5.406285   451A      5.422147  
     452A      5.442647   453A      5.452480   454A      5.472468  
     455A      5.500431   456A      5.536768   457A      5.546617  
     458A      5.566229   459A      5.585734   460A      5.589336  
     461A      5.595662   462A      5.609940   463A      5.629784  
     464A      5.663828   465A      5.683116   466A      5.688950  
     467A      5.706417   468A      5.721501   469A      5.734629  
     470A      5.757452   471A      5.774759   472A      5.814324  
     473A      5.833393   474A      5.855669   475A      5.864647  
     476A      5.905075   477A      5.913054   478A      5.967078  
     479A      6.021902   480A      6.051016   481A      6.094387  
     482A      6.106929   483A      6.119181   484A      6.158368  
     485A      6.190620   486A      6.226673   487A      6.258977  
     488A      6.280737   489A      6.288966   490A      6.307204  
     491A      6.388268   492A      6.409595   493A      6.445254  
     494A      6.481542   495A      6.611989   496A      6.735013  
     497A      6.795264   498A      6.822470   499A      6.843716  
     500A      6.894015   501A      6.915212   502A      6.999324  
     503A      7.047044   504A      7.065796   505A      7.137721  
     506A      7.164630   507A      7.172573   508A      7.210511  
     509A      7.344879   510A      7.368964   511A      7.390132  
     512A      7.526827   513A      7.543980   514A      7.560061  
     515A      7.693581   516A      7.804877   517A      7.842558  
     518A      7.853449   519A      7.897507   520A      7.915415  
     521A      7.921445   522A      7.993900   523A      8.000812  
     524A      8.046688   525A      8.153027   526A      8.266162  
     527A      8.287310   528A      8.331788   529A      8.381338  
     530A      8.420128   531A      8.476431   532A      8.682709  
     533A      8.711878   534A      8.977060   535A      9.068747  
     536A     10.014775   537A     10.142627   538A     10.331196  
     539A     10.453187   540A     10.735082   541A     10.787715  
     542A     11.152259   543A     12.107431   544A     12.418525  
     545A     13.367891   546A     14.340413   547A     16.688358  
     548A     17.811970   549A     18.792553   550A     53.132231  
     551A     54.975167   552A     67.590381  

    Final Occupation by Irrep:
              A 
    DOCC [    13 ]
    NA   [    13 ]
    NB   [    13 ]

  @DF-RHF Final Energy:  -154.14517433276708

   => Energetics <=

    Nuclear Repulsion Energy =             82.0744429966765807
    One-Electron Energy =                -372.0653220625977724
    Two-Electron Energy =                 135.8457047331541219
    Total Energy =                       -154.1451743327670840

Computation Completed


Properties will be evaluated at   0.000000,   0.000000,   0.000000 [a0]

Properties computed using the SCF density matrix


 Multipole Moments:

 ------------------------------------------------------------------------------------
     Multipole            Electronic (a.u.)      Nuclear  (a.u.)        Total (a.u.)
 ------------------------------------------------------------------------------------

 L = 1.  Multiply by 2.5417464519 to convert [e a0] to [Debye]
 Dipole X            :         84.2508826          -84.7998328           -0.5489502
 Dipole Y            :          4.3489044           -4.0393047            0.3095997
 Dipole Z            :          0.0375286            0.3011675            0.3386962
 Magnitude           :                                                    0.7154812

 ------------------------------------------------------------------------------------

*** tstop() called on Moses-MBP.lan at Thu Feb 27 17:25:08 2025
Module time:
	user time   =      71.60 seconds =       1.19 minutes
	system time =       6.06 seconds =       0.10 minutes
	total time  =          9 seconds =       0.15 minutes
Total time:
	user time   =     164.62 seconds =       2.74 minutes
	system time =      14.02 seconds =       0.23 minutes
	total time  =         22 seconds =       0.37 minutes

*** tstart() called on Moses-MBP.lan
*** at Thu Feb 27 17:25:08 2025


  //>>>>>>>>>>>>>>>>>>>>>>>>>>>>>>>>>>>//
  //               DFMP2               //
  //<<<<<<<<<<<<<<<<<<<<<<<<<<<<<<<<<<<//

   => Loading Basis Set <=

    Name: (AUG-CC-PVTZ AUX)
    Role: RIFIT
    Keyword: DF_BASIS_MP2
    atoms 1-2, 10-11 entry C          line   148 file /Users/moseschung/miniconda3/envs/psi4/share/psi4/basis/aug-cc-pvtz-ri.gbs 
    atoms 3, 12      entry O          line   264 file /Users/moseschung/miniconda3/envs/psi4/share/psi4/basis/aug-cc-pvtz-ri.gbs 
    atoms 4-9, 13-18 entry H          line    30 file /Users/moseschung/miniconda3/envs/psi4/share/psi4/basis/aug-cc-pvtz-ri.gbs 

	 --------------------------------------------------------
	                          DF-MP2                         
	      2nd-Order Density-Fitted Moller-Plesset Theory     
	              RMP2 Wavefunction,  10 Threads             
	                                                         
	        Rob Parrish, Justin Turney, Andy Simmonett,      
	           Ed Hohenstein, and C. David Sherrill          
	 --------------------------------------------------------

   => Auxiliary Basis Set <=

  Basis Set: (AUG-CC-PVTZ AUX)
    Blend: AUG-CC-PVTZ-RI
    Number of shells: 336
    Number of basis functions: 1188
    Number of Cartesian functions: 1476
    Spherical Harmonics?: true
    Max angular momentum: 4

	 --------------------------------------------------------
	                 NBF =   552, NAUX =  1188
	 --------------------------------------------------------
	   CLASS    FOCC     OCC    AOCC    AVIR     VIR    FVIR
	   PAIRS       0      13      13     539     539       0
	 --------------------------------------------------------

	-----------------------------------------------------------
	 ==================> DF-MP2 Energies <==================== 
	-----------------------------------------------------------
	 Reference Energy          =    -154.1451743327670840 [Eh]
	 Singles Energy            =      -0.0000000000000000 [Eh]
	 Same-Spin Energy          =      -0.1482515431020946 [Eh]
	 Opposite-Spin Energy      =      -0.5188425852059548 [Eh]
	 Correlation Energy        =      -0.6670941283080494 [Eh]
	 Total Energy              =    -154.8122684610751207 [Eh]
	-----------------------------------------------------------
	 ================> DF-SCS-MP2 Energies <================== 
	-----------------------------------------------------------
	 SCS Same-Spin Scale       =       0.3333333333333333 [-]
	 SCS Opposite-Spin Scale   =       1.2000000000000000 [-]
	 SCS Same-Spin Energy      =      -0.0494171810340315 [Eh]
	 SCS Opposite-Spin Energy  =      -0.6226111022471458 [Eh]
	 SCS Correlation Energy    =      -0.6720282832811773 [Eh]
	 SCS Total Energy          =    -154.8172026160482631 [Eh]
	-----------------------------------------------------------


*** tstop() called on Moses-MBP.lan at Thu Feb 27 17:25:12 2025
Module time:
	user time   =      20.50 seconds =       0.34 minutes
	system time =       1.87 seconds =       0.03 minutes
	total time  =          4 seconds =       0.07 minutes
Total time:
	user time   =     185.12 seconds =       3.09 minutes
	system time =      15.89 seconds =       0.26 minutes
	total time  =         26 seconds =       0.43 minutes

    Psi4 stopped on: Thursday, 27 February 2025 05:25PM
    Psi4 wall time for execution: 0:00:12.86


    -----------------------------------------------------------------------
          Psi4: An Open-Source Ab Initio Electronic Structure Package
                               Psi4 1.9.1 release

                         Git: Rev {} zzzzzzz 


    D. G. A. Smith, L. A. Burns, A. C. Simmonett, R. M. Parrish,
    M. C. Schieber, R. Galvelis, P. Kraus, H. Kruse, R. Di Remigio,
    A. Alenaizan, A. M. James, S. Lehtola, J. P. Misiewicz, M. Scheurer,
    R. A. Shaw, J. B. Schriber, Y. Xie, Z. L. Glick, D. A. Sirianni,
    J. S. O'Brien, J. M. Waldrop, A. Kumar, E. G. Hohenstein,
    B. P. Pritchard, B. R. Brooks, H. F. Schaefer III, A. Yu. Sokolov,
    K. Patkowski, A. E. DePrince III, U. Bozkaya, R. A. King,
    F. A. Evangelista, J. M. Turney, T. D. Crawford, C. D. Sherrill,
    J. Chem. Phys. 152(18) 184108 (2020). https://doi.org/10.1063/5.0006002

                            Additional Code Authors
    E. T. Seidl, C. L. Janssen, E. F. Valeev, M. L. Leininger,
    J. F. Gonthier, R. M. Richard, H. R. McAlexander, M. Saitow, X. Wang,
    P. Verma, M. H. Lechner, A. Jiang, S. Behnle, A. G. Heide,
    M. F. Herbst, and D. L. Poole

             Previous Authors, Complete List of Code Contributors,
                       and Citations for Specific Modules
    https://github.com/psi4/psi4/blob/master/codemeta.json
    https://github.com/psi4/psi4/graphs/contributors
    http://psicode.org/psi4manual/master/introduction.html#citing-psifour

    -----------------------------------------------------------------------


    Psi4 started on: Thursday, 27 February 2025 05:24PM

    Process ID: 30650
    Host:       Moses-MBP.lan
    PSIDATADIR: /Users/moseschung/miniconda3/envs/psi4/share/psi4
    Memory:     9.3 GiB
    Threads:    10
    
  ==> Input QCSchema <==

--------------------------------------------------------------------------
{'driver': 'energy',
 'extras': {'psiapi': True, 'wfn_qcvars_only': True},
 'id': None,
 'keywords': {'SCF_TYPE': 'DF', 'function_kwargs': {}},
 'model': {'basis': 'aug-cc-pvtz', 'method': 'mp2'},
 'molecule': {'atom_labels': ['', '', '', '', '', '', '', '', '', '', '', '', '', '', '', '', '', ''],
              'atomic_numbers': [6, 6, 8, 1, 1, 1, 1, 1, 1, 6, 6, 8, 1, 1, 1, 1, 1, 1],
              'extras': {},
              'fix_com': True,
              'fix_orientation': True,
              'fix_symmetry': 'c1',
              'fragment_charges': [0.0, 0.0],
              'fragment_multiplicities': [1, 1],
              'fragments': [[0, 1, 2, 3, 4, 5, 6, 7, 8], [9, 10, 11, 12, 13, 14, 15, 16, 17]],
              'geometry': [-3.813034573891168, 1.8520109714459407, 1.0129121005066504, -3.658426630936835,
                           -0.17729788454270437, -0.9771736000219919, -2.1582807743250165, -2.2526593662087566,
                           -0.20570991683896278, -2.818902571619317, -2.9128446367680767, 1.3517229872661098,
                           -4.941718855747866, 3.448273967976921, 0.3547337190925671, -1.9290815617466128,
                           2.5428929531871973, 1.499321936021119, -4.696615708097609, 1.1305891257911602,
                           2.736892237226698, -2.7642970454980875, 0.5482152181736923, -2.6927085506873683,
                           -5.554203659448379, -0.8234349310853704, -1.5175464547750344, 3.1641007326828237,
                           2.2404914196869337, -1.0145315957961678, 3.5492325862295058, 0.2489959834686998,
                           0.994901120804912, 3.2673232428337067, -2.2083358399361432, 0.05269879246064245,
                           1.4934826822934544, -2.4368963250841422, -0.338140033984922, 3.4156195005290098,
                           4.144071127370493, -0.253066453542936, 1.256359848071006, 2.1166198721631733,
                           -1.8050569464066901, 4.499917895150955, 1.9706007344490468, -2.563130030264725,
                           2.2519979620648463, 0.5950804260850464, 2.588749047347557, 5.463869081473119,
                           0.3796006251774667, 1.7656561566908944],
              'mass_numbers': [12, 12, 16, 1, 1, 1, 1, 1, 1, 12, 12, 16, 1, 1, 1, 1, 1, 1],
              'masses': [12.0, 12.0, 15.99491461957, 1.00782503223, 1.00782503223, 1.00782503223, 1.00782503223,
                         1.00782503223, 1.00782503223, 12.0, 12.0, 15.99491461957, 1.00782503223, 1.00782503223,
                         1.00782503223, 1.00782503223, 1.00782503223, 1.00782503223],
              'molecular_charge': 0.0,
              'molecular_multiplicity': 1,
              'name': 'dimer',
              'provenance': {'creator': 'QCElemental',
                             'routine': 'qcelemental.molparse.from_string',
                             'version': '0.29.0'},
              'real': [True, True, True, True, True, True, True, True, True, True, True, True, True, True, True, True,
                       True, True],
              'schema_name': 'qcschema_molecule',
              'schema_version': 2,
              'symbols': ['C', 'C', 'O', 'H', 'H', 'H', 'H', 'H', 'H', 'C', 'C', 'O', 'H', 'H', 'H', 'H', 'H', 'H'],
              'validated': True},
 'protocols': {'stdout': True},
 'provenance': {'creator': 'QCElemental', 'routine': 'qcelemental.models.results', 'version': '0.29.0'},
 'schema_name': 'qcschema_input',
 'schema_version': 1}
--------------------------------------------------------------------------

Scratch directory: /tmp/
   => Libint2 <=

    Primary   basis highest AM E, G, H:  6, 6, 3
    Auxiliary basis highest AM E, G, H:  7, 7, 4
    Onebody   basis highest AM E, G, H:  -, -, -
    Solid Harmonics ordering:            Gaussian

*** tstart() called on Moses-MBP.lan
*** at Thu Feb 27 17:25:12 2025

   => Loading Basis Set <=

    Name: AUG-CC-PVTZ
    Role: ORBITAL
    Keyword: BASIS
    atoms 1-2, 10-11 entry C          line   239 file /Users/moseschung/miniconda3/envs/psi4/share/psi4/basis/aug-cc-pvtz.gbs 
    atoms 3, 12      entry O          line   331 file /Users/moseschung/miniconda3/envs/psi4/share/psi4/basis/aug-cc-pvtz.gbs 
    atoms 4-9, 13-18 entry H          line    40 file /Users/moseschung/miniconda3/envs/psi4/share/psi4/basis/aug-cc-pvtz.gbs 


         ---------------------------------------------------------
                                   SCF
               by Justin Turney, Rob Parrish, Andy Simmonett
                          and Daniel G. A. Smith
                              RHF Reference
                       10 Threads,   9536 MiB Core
         ---------------------------------------------------------

  ==> Geometry <==

    Molecular point group: c1
    Full point group: C1

    Geometry (in Bohr), charge = 0, multiplicity = 1:

       Center              X                  Y                   Z               Mass       
    ------------   -----------------  -----------------  -----------------  -----------------
         C           -3.813034573891     1.852010971446     1.012912100507    12.000000000000
         C           -3.658426630937    -0.177297884543    -0.977173600022    12.000000000000
         O           -2.158280774325    -2.252659366209    -0.205709916839    15.994914619570
         H           -2.818902571619    -2.912844636768     1.351722987266     1.007825032230
         H           -4.941718855748     3.448273967977     0.354733719093     1.007825032230
         H           -1.929081561747     2.542892953187     1.499321936021     1.007825032230
         H           -4.696615708098     1.130589125791     2.736892237227     1.007825032230
         H           -2.764297045498     0.548215218174    -2.692708550687     1.007825032230
         H           -5.554203659448    -0.823434931085    -1.517546454775     1.007825032230
         C            3.164100732683     2.240491419687    -1.014531595796    12.000000000000
         C            3.549232586230     0.248995983469     0.994901120805    12.000000000000
         O            3.267323242834    -2.208335839936     0.052698792461    15.994914619570
         H            1.493482682293    -2.436896325084    -0.338140033985     1.007825032230
         H            3.415619500529     4.144071127370    -0.253066453543     1.007825032230
         H            1.256359848071     2.116619872163    -1.805056946407     1.007825032230
         H            4.499917895151     1.970600734449    -2.563130030265     1.007825032230
         H            2.251997962065     0.595080426085     2.588749047348     1.007825032230
         H            5.463869081473     0.379600625177     1.765656156691     1.007825032230

  Running in c1 symmetry.

  Rotational constants: A =      0.14569  B =      0.05421  C =      0.04481 [cm^-1]
  Rotational constants: A =   4367.76291  B =   1625.24961  C =   1343.27336 [MHz]
  Nuclear repulsion =  260.520318452150264

  Charge       = 0
  Multiplicity = 1
  Electrons    = 52
  Nalpha       = 26
  Nbeta        = 26

  ==> Algorithm <==

  SCF Algorithm Type is DF.
  DIIS enabled.
  MOM disabled.
  Fractional occupation disabled.
  Guess Type is SAD.
  Energy threshold   = 1.00e-08
  Density threshold  = 1.00e-08
  Integral threshold = 1.00e-12

  ==> Primary Basis <==

  Basis Set: AUG-CC-PVTZ
    Blend: AUG-CC-PVTZ
    Number of shells: 192
    Number of basis functions: 552
    Number of Cartesian functions: 630
    Spherical Harmonics?: true
    Max angular momentum: 3

   => Loading Basis Set <=

    Name: (AUG-CC-PVTZ AUX)
    Role: JKFIT
    Keyword: DF_BASIS_SCF
    atoms 1-2, 10-11 entry C          line   162 file /Users/moseschung/miniconda3/envs/psi4/share/psi4/basis/aug-cc-pvtz-jkfit.gbs 
    atoms 3, 12      entry O          line   286 file /Users/moseschung/miniconda3/envs/psi4/share/psi4/basis/aug-cc-pvtz-jkfit.gbs 
    atoms 4-9, 13-18 entry H          line    70 file /Users/moseschung/miniconda3/envs/psi4/share/psi4/basis/aug-cc-pvtz-jkfit.gbs 

  ==> Integral Setup <==

  DFHelper Memory: AOs need 2.660 GiB; user supplied 6.985 GiB. 
  Using in-core AOs.

  ==> MemDFJK: Density-Fitted J/K Matrices <==

    J tasked:                   Yes
    K tasked:                   Yes
    wK tasked:                   No
    OpenMP threads:              10
    Memory [MiB]:              7152
    Algorithm:                 Core
    Schwarz Cutoff:           1E-12
    Mask sparsity (%):       3.9140
    Fitting Condition:        1E-10

   => Auxiliary Basis Set <=

  Basis Set: (AUG-CC-PVTZ AUX)
    Blend: AUG-CC-PVTZ-JKFIT
    Number of shells: 348
    Number of basis functions: 1176
    Number of Cartesian functions: 1446
    Spherical Harmonics?: true
    Max angular momentum: 4

  Minimum eigenvalue in the overlap matrix is 6.4383107350E-06.
  Reciprocal condition number of the overlap matrix is 3.2770125939E-07.
    Using symmetric orthogonalization.

  ==> Pre-Iterations <==

  SCF Guess: Superposition of Atomic Densities via on-the-fly atomic UHF (no occupation information).

   -------------------------
    Irrep   Nso     Nmo    
   -------------------------
     A        552     552 
   -------------------------
    Total     552     552
   -------------------------

  ==> Iterations <==

                           Total Energy        Delta E     RMS |[F,P]|

   @DF-RHF iter SAD:  -307.13687300771119   -3.07137e+02   0.00000e+00 
   @DF-RHF iter   1:  -308.01991323749633   -8.83040e-01   1.29139e-03 DIIS/ADIIS
   @DF-RHF iter   2:  -308.23880689007729   -2.18894e-01   6.55412e-04 DIIS/ADIIS
   @DF-RHF iter   3:  -308.28895767340902   -5.01508e-02   1.16212e-04 DIIS/ADIIS
   @DF-RHF iter   4:  -308.29206383074717   -3.10616e-03   4.13220e-05 DIIS
   @DF-RHF iter   5:  -308.29237079700175   -3.06966e-04   8.88753e-06 DIIS
   @DF-RHF iter   6:  -308.29239108370405   -2.02867e-05   2.07215e-06 DIIS
   @DF-RHF iter   7:  -308.29239254147762   -1.45777e-06   5.77580e-07 DIIS
   @DF-RHF iter   8:  -308.29239264425610   -1.02778e-07   1.80685e-07 DIIS
   @DF-RHF iter   9:  -308.29239265601404   -1.17579e-08   4.86582e-08 DIIS
   @DF-RHF iter  10:  -308.29239265684356   -8.29516e-10   1.58799e-08 DIIS
   @DF-RHF iter  11:  -308.29239265689296   -4.93969e-11   4.85454e-09 DIIS
  Energy and wave function converged.


  ==> Post-Iterations <==

    Orbital Energies [Eh]
    ---------------------

    Doubly Occupied:                                                      

       1A    -20.578558     2A    -20.526825     3A    -11.289652  
       4A    -11.258634     5A    -11.230039     6A    -11.206274  
       7A     -1.385647     8A     -1.338586     9A     -1.030388  
      10A     -0.999294    11A     -0.865644    12A     -0.830882  
      13A     -0.711852    14A     -0.674973    15A     -0.642448  
      16A     -0.631118    17A     -0.609982    18A     -0.590737  
      19A     -0.561507    20A     -0.541408    21A     -0.529875  
      22A     -0.512650    23A     -0.498892    24A     -0.465707  
      25A     -0.457931    26A     -0.421361  

    Virtual:                                                              

      27A      0.024528    28A      0.033992    29A      0.035450  
      30A      0.041070    31A      0.051558    32A      0.055548  
      33A      0.056108    34A      0.060148    35A      0.068837  
      36A      0.077598    37A      0.084223    38A      0.088834  
      39A      0.107887    40A      0.114737    41A      0.119102  
      42A      0.121776    43A      0.127726    44A      0.131413  
      45A      0.140608    46A      0.143401    47A      0.148807  
      48A      0.153406    49A      0.157551    50A      0.166392  
      51A      0.172982    52A      0.175129    53A      0.178427  
      54A      0.191192    55A      0.196437    56A      0.206897  
      57A      0.220743    58A      0.225915    59A      0.228467  
      60A      0.244552    61A      0.245872    62A      0.260723  
      63A      0.271491    64A      0.276242    65A      0.286575  
      66A      0.288336    67A      0.293873    68A      0.297754  
      69A      0.306327    70A      0.311862    71A      0.320287  
      72A      0.325965    73A      0.330469    74A      0.334246  
      75A      0.336323    76A      0.341471    77A      0.343043  
      78A      0.351593    79A      0.353858    80A      0.364550  
      81A      0.371052    82A      0.375025    83A      0.381861  
      84A      0.384148    85A      0.399420    86A      0.401549  
      87A      0.403779    88A      0.409757    89A      0.411722  
      90A      0.420888    91A      0.424632    92A      0.424750  
      93A      0.429590    94A      0.443159    95A      0.444168  
      96A      0.455181    97A      0.460964    98A      0.464981  
      99A      0.469195   100A      0.471422   101A      0.480156  
     102A      0.483530   103A      0.491613   104A      0.496725  
     105A      0.503373   106A      0.506900   107A      0.507789  
     108A      0.512660   109A      0.522715   110A      0.529549  
     111A      0.532709   112A      0.537990   113A      0.545029  
     114A      0.551984   115A      0.557741   116A      0.565611  
     117A      0.570345   118A      0.576937   119A      0.584313  
     120A      0.588970   121A      0.602816   122A      0.606719  
     123A      0.610796   124A      0.617032   125A      0.625677  
     126A      0.635958   127A      0.642866   128A      0.659124  
     129A      0.661804   130A      0.674107   131A      0.679681  
     132A      0.701394   133A      0.707996   134A      0.721872  
     135A      0.734646   136A      0.742208   137A      0.751697  
     138A      0.756755   139A      0.768596   140A      0.798373  
     141A      0.799833   142A      0.809631   143A      0.817715  
     144A      0.827839   145A      0.829174   146A      0.837348  
     147A      0.849042   148A      0.850033   149A      0.857293  
     150A      0.863953   151A      0.880068   152A      0.887631  
     153A      0.890879   154A      0.894208   155A      0.905224  
     156A      0.910348   157A      0.913927   158A      0.922463  
     159A      0.924957   160A      0.933054   161A      0.942585  
     162A      0.955751   163A      0.957932   164A      0.959672  
     165A      0.964907   166A      0.982168   167A      0.989264  
     168A      0.997007   169A      1.007592   170A      1.011909  
     171A      1.021187   172A      1.024264   173A      1.028544  
     174A      1.043557   175A      1.050737   176A      1.055738  
     177A      1.060262   178A      1.068720   179A      1.072064  
     180A      1.079949   181A      1.086585   182A      1.092219  
     183A      1.109773   184A      1.117823   185A      1.119676  
     186A      1.120851   187A      1.127707   188A      1.138874  
     189A      1.141907   190A      1.153691   191A      1.162675  
     192A      1.165652   193A      1.171761   194A      1.176683  
     195A      1.186005   196A      1.198184   197A      1.203613  
     198A      1.213510   199A      1.222322   200A      1.226792  
     201A      1.243112   202A      1.255993   203A      1.256690  
     204A      1.268725   205A      1.281544   206A      1.287161  
     207A      1.290165   208A      1.303864   209A      1.311075  
     210A      1.317746   211A      1.329961   212A      1.335657  
     213A      1.343896   214A      1.348332   215A      1.353288  
     216A      1.365849   217A      1.374992   218A      1.377915  
     219A      1.388367   220A      1.402769   221A      1.411486  
     222A      1.415459   223A      1.424692   224A      1.434521  
     225A      1.449998   226A      1.452825   227A      1.457265  
     228A      1.480637   229A      1.491335   230A      1.502423  
     231A      1.515694   232A      1.527323   233A      1.538207  
     234A      1.544474   235A      1.560128   236A      1.562247  
     237A      1.570749   238A      1.584075   239A      1.601851  
     240A      1.616795   241A      1.620459   242A      1.638337  
     243A      1.645081   244A      1.652850   245A      1.655558  
     246A      1.673069   247A      1.686603   248A      1.693296  
     249A      1.698690   250A      1.703699   251A      1.713385  
     252A      1.721145   253A      1.726727   254A      1.735803  
     255A      1.741866   256A      1.755815   257A      1.766198  
     258A      1.782709   259A      1.789164   260A      1.799731  
     261A      1.805660   262A      1.813650   263A      1.815455  
     264A      1.830511   265A      1.836970   266A      1.855237  
     267A      1.861933   268A      1.870113   269A      1.871804  
     270A      1.889040   271A      1.897202   272A      1.904937  
     273A      1.918672   274A      1.929688   275A      1.936012  
     276A      1.946617   277A      1.955689   278A      1.963681  
     279A      1.985606   280A      1.992409   281A      2.009020  
     282A      2.015310   283A      2.031663   284A      2.057707  
     285A      2.070277   286A      2.078450   287A      2.086860  
     288A      2.099809   289A      2.101946   290A      2.109420  
     291A      2.133826   292A      2.143012   293A      2.155414  
     294A      2.174718   295A      2.188895   296A      2.192620  
     297A      2.209891   298A      2.229007   299A      2.253891  
     300A      2.256906   301A      2.263805   302A      2.279521  
     303A      2.281995   304A      2.309798   305A      2.336256  
     306A      2.339794   307A      2.369103   308A      2.375920  
     309A      2.390818   310A      2.394342   311A      2.406816  
     312A      2.432492   313A      2.445015   314A      2.455665  
     315A      2.477945   316A      2.515121   317A      2.533399  
     318A      2.552425   319A      2.598748   320A      2.624458  
     321A      2.642307   322A      2.659817   323A      2.671349  
     324A      2.710647   325A      2.741269   326A      2.761760  
     327A      2.781105   328A      2.801607   329A      2.820156  
     330A      2.868984   331A      2.885840   332A      2.924039  
     333A      2.930544   334A      2.945742   335A      2.980665  
     336A      3.001272   337A      3.014978   338A      3.045128  
     339A      3.068189   340A      3.087814   341A      3.109846  
     342A      3.132607   343A      3.163324   344A      3.174566  
     345A      3.201237   346A      3.226145   347A      3.262515  
     348A      3.275789   349A      3.335753   350A      3.350612  
     351A      3.389233   352A      3.415467   353A      3.437435  
     354A      3.454808   355A      3.489768   356A      3.495876  
     357A      3.522961   358A      3.530159   359A      3.568316  
     360A      3.588839   361A      3.618819   362A      3.647857  
     363A      3.659808   364A      3.681780   365A      3.683048  
     366A      3.700195   367A      3.713326   368A      3.720491  
     369A      3.728962   370A      3.734736   371A      3.759579  
     372A      3.784627   373A      3.791582   374A      3.799177  
     375A      3.808142   376A      3.818274   377A      3.820809  
     378A      3.847909   379A      3.859238   380A      3.875066  
     381A      3.899513   382A      3.911039   383A      3.929616  
     384A      3.933821   385A      3.967967   386A      3.974156  
     387A      3.992355   388A      3.999980   389A      4.006012  
     390A      4.025986   391A      4.029097   392A      4.044742  
     393A      4.057367   394A      4.075971   395A      4.079599  
     396A      4.092499   397A      4.102427   398A      4.116481  
     399A      4.127490   400A      4.149869   401A      4.155866  
     402A      4.168434   403A      4.193321   404A      4.201529  
     405A      4.218132   406A      4.238534   407A      4.243396  
     408A      4.252785   409A      4.267012   410A      4.285726  
     411A      4.323257   412A      4.332904   413A      4.357036  
     414A      4.365665   415A      4.368488   416A      4.384504  
     417A      4.410210   418A      4.422435   419A      4.430659  
     420A      4.452795   421A      4.472184   422A      4.500290  
     423A      4.513633   424A      4.540785   425A      4.564429  
     426A      4.583831   427A      4.590106   428A      4.600294  
     429A      4.611173   430A      4.629244   431A      4.644879  
     432A      4.660978   433A      4.675482   434A      4.700538  
     435A      4.714373   436A      4.744524   437A      4.758862  
     438A      4.767189   439A      4.793452   440A      4.810860  
     441A      4.837695   442A      4.854253   443A      4.876356  
     444A      4.878109   445A      4.891699   446A      4.909230  
     447A      4.926404   448A      4.939844   449A      4.948452  
     450A      4.956986   451A      4.970145   452A      4.990430  
     453A      5.009752   454A      5.018455   455A      5.040285  
     456A      5.052170   457A      5.061858   458A      5.085060  
     459A      5.087971   460A      5.104848   461A      5.126591  
     462A      5.148902   463A      5.187441   464A      5.195000  
     465A      5.208362   466A      5.230677   467A      5.247703  
     468A      5.249641   469A      5.272773   470A      5.301206  
     471A      5.348839   472A      5.354621   473A      5.376272  
     474A      5.389074   475A      5.404426   476A      5.424231  
     477A      5.438119   478A      5.455815   479A      5.474310  
     480A      5.508309   481A      5.523444   482A      5.533110  
     483A      5.576059   484A      5.584763   485A      5.599753  
     486A      5.616892   487A      5.646200   488A      5.649107  
     489A      5.673837   490A      5.701599   491A      5.718330  
     492A      5.739607   493A      5.765422   494A      5.783980  
     495A      5.803501   496A      5.838038   497A      5.869438  
     498A      5.891146   499A      6.010753   500A      6.033216  
     501A      6.073924   502A      6.119591   503A      6.133659  
     504A      6.164533   505A      6.199525   506A      6.227274  
     507A      6.258607   508A      6.260734   509A      6.291648  
     510A      6.318275   511A      6.336884   512A      6.394492  
     513A      6.434766   514A      6.452515   515A      6.709703  
     516A      6.755005   517A      6.786115   518A      6.810449  
     519A      6.814391   520A      6.844103   521A      6.885423  
     522A      6.918060   523A      7.008121   524A      7.042289  
     525A      7.083770   526A      7.135027   527A      7.185045  
     528A      7.234540   529A      7.335106   530A      7.386566  
     531A      7.461471   532A      7.471247   533A      7.520491  
     534A      7.562660   535A      7.624716   536A      7.668972  
     537A      7.704135   538A      7.731387   539A      7.889263  
     540A      7.919750   541A      7.962403   542A      8.111652  
     543A      8.257517   544A      8.321480   545A      8.658614  
     546A      8.737432   547A     16.274162   548A     17.127773  
     549A     17.796229   550A     17.970892   551A     18.775047  
     552A     18.895423  

    Final Occupation by Irrep:
              A 
    DOCC [    26 ]
    NA   [    26 ]
    NB   [    26 ]

  @DF-RHF Final Energy:  -308.29239265689296

   => Energetics <=

    Nuclear Repulsion Energy =            260.5203184521502635
    One-Electron Energy =                -936.8436905423554890
    Two-Electron Energy =                 368.0309794333122682
    Total Energy =                       -308.2923926568929573

Computation Completed


Properties will be evaluated at   0.000000,   0.000000,   0.000000 [a0]

Properties computed using the SCF density matrix


 Multipole Moments:

 ------------------------------------------------------------------------------------
     Multipole            Electronic (a.u.)      Nuclear  (a.u.)        Total (a.u.)
 ------------------------------------------------------------------------------------

 L = 1.  Multiply by 2.5417464519 to convert [e a0] to [Debye]
 Dipole X            :         -1.3122282            0.0000000           -1.3122282
 Dipole Y            :          0.7393875            0.0000094            0.7393970
 Dipole Z            :          0.3736521           -0.0000132            0.3736388
 Magnitude           :                                                    1.5518559

 ------------------------------------------------------------------------------------

*** tstop() called on Moses-MBP.lan at Thu Feb 27 17:25:24 2025
Module time:
	user time   =      91.10 seconds =       1.52 minutes
	system time =       7.86 seconds =       0.13 minutes
	total time  =         12 seconds =       0.20 minutes
Total time:
	user time   =     276.53 seconds =       4.61 minutes
	system time =      23.82 seconds =       0.40 minutes
	total time  =         38 seconds =       0.63 minutes

*** tstart() called on Moses-MBP.lan
*** at Thu Feb 27 17:25:24 2025


  //>>>>>>>>>>>>>>>>>>>>>>>>>>>>>>>>>>>//
  //               DFMP2               //
  //<<<<<<<<<<<<<<<<<<<<<<<<<<<<<<<<<<<//

   => Loading Basis Set <=

    Name: (AUG-CC-PVTZ AUX)
    Role: RIFIT
    Keyword: DF_BASIS_MP2
    atoms 1-2, 10-11 entry C          line   148 file /Users/moseschung/miniconda3/envs/psi4/share/psi4/basis/aug-cc-pvtz-ri.gbs 
    atoms 3, 12      entry O          line   264 file /Users/moseschung/miniconda3/envs/psi4/share/psi4/basis/aug-cc-pvtz-ri.gbs 
    atoms 4-9, 13-18 entry H          line    30 file /Users/moseschung/miniconda3/envs/psi4/share/psi4/basis/aug-cc-pvtz-ri.gbs 

	 --------------------------------------------------------
	                          DF-MP2                         
	      2nd-Order Density-Fitted Moller-Plesset Theory     
	              RMP2 Wavefunction,  10 Threads             
	                                                         
	        Rob Parrish, Justin Turney, Andy Simmonett,      
	           Ed Hohenstein, and C. David Sherrill          
	 --------------------------------------------------------

   => Auxiliary Basis Set <=

  Basis Set: (AUG-CC-PVTZ AUX)
    Blend: AUG-CC-PVTZ-RI
    Number of shells: 336
    Number of basis functions: 1188
    Number of Cartesian functions: 1476
    Spherical Harmonics?: true
    Max angular momentum: 4

	 --------------------------------------------------------
	                 NBF =   552, NAUX =  1188
	 --------------------------------------------------------
	   CLASS    FOCC     OCC    AOCC    AVIR     VIR    FVIR
	   PAIRS       0      26      26     526     526       0
	 --------------------------------------------------------

	-----------------------------------------------------------
	 ==================> DF-MP2 Energies <==================== 
	-----------------------------------------------------------
	 Reference Energy          =    -308.2923926568929573 [Eh]
	 Singles Energy            =      -0.0000000000000000 [Eh]
	 Same-Spin Energy          =      -0.3002673148380267 [Eh]
	 Opposite-Spin Energy      =      -1.0407574798273980 [Eh]
	 Correlation Energy        =      -1.3410247946654246 [Eh]
	 Total Energy              =    -309.6334174515583868 [Eh]
	-----------------------------------------------------------
	 ================> DF-SCS-MP2 Energies <================== 
	-----------------------------------------------------------
	 SCS Same-Spin Scale       =       0.3333333333333333 [-]
	 SCS Opposite-Spin Scale   =       1.2000000000000000 [-]
	 SCS Same-Spin Energy      =      -0.1000891049460089 [Eh]
	 SCS Opposite-Spin Energy  =      -1.2489089757928775 [Eh]
	 SCS Correlation Energy    =      -1.3489980807388864 [Eh]
	 SCS Total Energy          =    -309.6413907376318662 [Eh]
	-----------------------------------------------------------


*** tstop() called on Moses-MBP.lan at Thu Feb 27 17:25:29 2025
Module time:
	user time   =      32.15 seconds =       0.54 minutes
	system time =       2.71 seconds =       0.05 minutes
	total time  =          5 seconds =       0.08 minutes
Total time:
	user time   =     308.68 seconds =       5.14 minutes
	system time =      26.53 seconds =       0.44 minutes
	total time  =         43 seconds =       0.72 minutes

    Psi4 stopped on: Thursday, 27 February 2025 05:25PM
    Psi4 wall time for execution: 0:00:16.73


  //>>>>>>>>>>>>>>>>>>>>>>>>>>>>>>>>>>>//
  //          ManyBody Results         //
  //<<<<<<<<<<<<<<<<<<<<<<<<<<<<<<<<<<<//


   ==> N-Body: Counterpoise Corrected (CP) energies <==

        n-Body     Total Energy            Interaction Energy                          N-body Contribution to Interaction Energy
                   [Eh]                    [Eh]                  [kcal/mol]            [Eh]                  [kcal/mol]
             1  N/A                         0.000000000000        0.000000000000        0.000000000000        0.000000000000
  FULL/RTN   2  N/A                        -0.009446097721       -5.927515810207       -0.009446097721       -5.927515810207


    Psi4 stopped on: Thursday, 27 February 2025 05:25PM
    Psi4 wall time for execution: 0:00:44.04

*** Psi4 exiting successfully. Buy a developer a beer!
