
    -----------------------------------------------------------------------
          Psi4: An Open-Source Ab Initio Electronic Structure Package
                               Psi4 1.9.1 release

                         Git: Rev {} zzzzzzz 


    D. G. A. Smith, L. A. Burns, A. C. Simmonett, R. M. Parrish,
    M. C. Schieber, R. Galvelis, P. Kraus, H. Kruse, R. Di Remigio,
    A. Alenaizan, A. M. James, S. Lehtola, J. P. Misiewicz, M. Scheurer,
    R. A. Shaw, J. B. Schriber, Y. Xie, Z. L. Glick, D. A. Sirianni,
    J. S. O'Brien, J. M. Waldrop, A. Kumar, E. G. Hohenstein,
    B. P. Pritchard, B. R. Brooks, H. F. Schaefer III, A. Yu. Sokolov,
    K. Patkowski, A. E. DePrince III, U. Bozkaya, R. A. King,
    F. A. Evangelista, J. M. Turney, T. D. Crawford, C. D. Sherrill,
    J. Chem. Phys. 152(18) 184108 (2020). https://doi.org/10.1063/5.0006002

                            Additional Code Authors
    E. T. Seidl, C. L. Janssen, E. F. Valeev, M. L. Leininger,
    J. F. Gonthier, R. M. Richard, H. R. McAlexander, M. Saitow, X. Wang,
    P. Verma, M. H. Lechner, A. Jiang, S. Behnle, A. G. Heide,
    M. F. Herbst, and D. L. Poole

             Previous Authors, Complete List of Code Contributors,
                       and Citations for Specific Modules
    https://github.com/psi4/psi4/blob/master/codemeta.json
    https://github.com/psi4/psi4/graphs/contributors
    http://psicode.org/psi4manual/master/introduction.html#citing-psifour

    -----------------------------------------------------------------------


    Psi4 started on: Thursday, 27 February 2025 05:46PM

    Process ID: 32166
    Host:       Moses-MBP.lan
    PSIDATADIR: /Users/moseschung/miniconda3/envs/psi4/share/psi4
    Memory:     500.0 MiB
    Threads:    10
    
  ==> Input File <==

--------------------------------------------------------------------------
MEMORY 10 GB

molecule dimer {
0 1
C    1.447113   0.504977   1.091606
C    1.635198  -0.309395  -0.155937
O    2.907118  -0.011819  -0.690990
H    3.040177  -0.530152  -1.486406
H    0.472155   0.294529   1.534282
H    1.509027   1.571559   0.863457
H    2.226329   0.272116   1.819833
H    0.838755  -0.076688  -0.879678
H    1.544353  -1.379853   0.079056
--
0 1
C   -2.027932   1.165505  -0.282143
C   -2.262596  -0.307312  -0.466646
O   -1.594041  -0.990302   0.572194
H   -1.758617  -1.931289   0.488629
H   -2.554023   1.741064  -1.045218
H   -0.962905   1.398319  -0.348543
H   -2.381845   1.486145   0.699509
H   -1.888449  -0.628346  -1.450293
H   -3.340269  -0.523081  -0.445541

units ang
no_reorient
no_com
symmetry c1
}

set {
basis        aug-cc-pVTZ
scf_type     df
}

energy("mp2", bsse_type="cp")
--------------------------------------------------------------------------

  Memory set to   9.313 GiB by Python driver.

Scratch directory: /tmp/

  //>>>>>>>>>>>>>>>>>>>>>>>>>>>>>>>>>>>>>//
  // ManyBody Setup: N-Body Levels [1, 2]//
  //<<<<<<<<<<<<<<<<<<<<<<<<<<<<<<<<<<<<<//

        Number of 1-body computations:     2
        Number of 2-body computations:     1

    -----------------------------------------------------------------------
          Psi4: An Open-Source Ab Initio Electronic Structure Package
                               Psi4 1.9.1 release

                         Git: Rev {} zzzzzzz 


    D. G. A. Smith, L. A. Burns, A. C. Simmonett, R. M. Parrish,
    M. C. Schieber, R. Galvelis, P. Kraus, H. Kruse, R. Di Remigio,
    A. Alenaizan, A. M. James, S. Lehtola, J. P. Misiewicz, M. Scheurer,
    R. A. Shaw, J. B. Schriber, Y. Xie, Z. L. Glick, D. A. Sirianni,
    J. S. O'Brien, J. M. Waldrop, A. Kumar, E. G. Hohenstein,
    B. P. Pritchard, B. R. Brooks, H. F. Schaefer III, A. Yu. Sokolov,
    K. Patkowski, A. E. DePrince III, U. Bozkaya, R. A. King,
    F. A. Evangelista, J. M. Turney, T. D. Crawford, C. D. Sherrill,
    J. Chem. Phys. 152(18) 184108 (2020). https://doi.org/10.1063/5.0006002

                            Additional Code Authors
    E. T. Seidl, C. L. Janssen, E. F. Valeev, M. L. Leininger,
    J. F. Gonthier, R. M. Richard, H. R. McAlexander, M. Saitow, X. Wang,
    P. Verma, M. H. Lechner, A. Jiang, S. Behnle, A. G. Heide,
    M. F. Herbst, and D. L. Poole

             Previous Authors, Complete List of Code Contributors,
                       and Citations for Specific Modules
    https://github.com/psi4/psi4/blob/master/codemeta.json
    https://github.com/psi4/psi4/graphs/contributors
    http://psicode.org/psi4manual/master/introduction.html#citing-psifour

    -----------------------------------------------------------------------


    Psi4 started on: Thursday, 27 February 2025 05:46PM

    Process ID: 32166
    Host:       Moses-MBP.lan
    PSIDATADIR: /Users/moseschung/miniconda3/envs/psi4/share/psi4
    Memory:     9.3 GiB
    Threads:    10
    
  ==> Input QCSchema <==

--------------------------------------------------------------------------
{'driver': 'energy',
 'extras': {'psiapi': True, 'wfn_qcvars_only': True},
 'id': None,
 'keywords': {'SCF_TYPE': 'DF', 'function_kwargs': {}},
 'model': {'basis': 'aug-cc-pvtz', 'method': 'mp2'},
 'molecule': {'atom_labels': ['', '', '', '', '', '', '', '', '', '', '', '', '', '', '', '', '', ''],
              'atomic_numbers': [6, 6, 8, 1, 1, 1, 1, 1, 1, 6, 6, 8, 1, 1, 1, 1, 1, 1],
              'extras': {},
              'fix_com': True,
              'fix_orientation': True,
              'fix_symmetry': 'c1',
              'fragment_charges': [0.0, 0.0],
              'fragment_multiplicities': [1, 1],
              'fragments': [[0, 1, 2, 3, 4, 5, 6, 7, 8], [9, 10, 11, 12, 13, 14, 15, 16, 17]],
              'geometry': [2.7346472425896544, 0.9542682296553177, 2.062836376906518, 3.0900763808963894,
                           -0.5846718145860247, -0.2946782228255173, 5.493656834388711, -0.02233467307678607,
                           -1.3057818554301046, 5.745101902916003, -1.0018420848637184, -2.8089002512372683,
                           0.8922436387655408, 0.5565791460049686, 2.8993727792196875, 2.85164774592125,
                           2.9698160999983787, 1.6316972511094399, 4.207152075164401, 0.5142247143550824,
                           3.4389859640702958, 1.5850172363583808, -0.14491931710910994, -1.6623504985904913,
                           2.9184042110291735, -2.6075442633913606, 0.14939418857419406, -3.8322360810519442,
                           2.202485247851726, -0.5331729982150479, -4.27568677255638, -0.5807355150666961,
                           -0.8818331375403937, -3.012300922750922, -1.8713995614931382, 1.0812899506302165,
                           -3.3233044895742694, -3.6496072791093237, 0.9233749869563329, -4.826403988120179,
                           3.290134126894108, -1.9751757613987801, -1.81962673483397, 2.642439946024065,
                           -0.6586508129454478, -4.501034723291101, 2.808407032718524, 1.32188043229288,
                           -3.5686514118947104, -1.1874018520269245, -2.74065657166861, -6.312193595356894,
                           -0.9884798314306062, -0.8419504676626063],
              'mass_numbers': [12, 12, 16, 1, 1, 1, 1, 1, 1, 12, 12, 16, 1, 1, 1, 1, 1, 1],
              'masses': [12.0, 12.0, 15.99491461957, 1.00782503223, 1.00782503223, 1.00782503223, 1.00782503223,
                         1.00782503223, 1.00782503223, 12.0, 12.0, 15.99491461957, 1.00782503223, 1.00782503223,
                         1.00782503223, 1.00782503223, 1.00782503223, 1.00782503223],
              'molecular_charge': 0.0,
              'molecular_multiplicity': 1,
              'name': 'dimer',
              'provenance': {'creator': 'QCElemental',
                             'routine': 'qcelemental.molparse.from_string',
                             'version': '0.29.0'},
              'real': [False, False, False, False, False, False, False, False, False, True, True, True, True, True,
                       True, True, True, True],
              'schema_name': 'qcschema_molecule',
              'schema_version': 2,
              'symbols': ['C', 'C', 'O', 'H', 'H', 'H', 'H', 'H', 'H', 'C', 'C', 'O', 'H', 'H', 'H', 'H', 'H', 'H'],
              'validated': True},
 'protocols': {'stdout': True},
 'provenance': {'creator': 'QCElemental', 'routine': 'qcelemental.models.results', 'version': '0.29.0'},
 'schema_name': 'qcschema_input',
 'schema_version': 1}
--------------------------------------------------------------------------

Scratch directory: /tmp/
   => Libint2 <=

    Primary   basis highest AM E, G, H:  6, 6, 3
    Auxiliary basis highest AM E, G, H:  7, 7, 4
    Onebody   basis highest AM E, G, H:  -, -, -
    Solid Harmonics ordering:            Gaussian

*** tstart() called on Moses-MBP.lan
*** at Thu Feb 27 17:46:50 2025

   => Loading Basis Set <=

    Name: AUG-CC-PVTZ
    Role: ORBITAL
    Keyword: BASIS
    atoms 1-2, 10-11 entry C          line   239 file /Users/moseschung/miniconda3/envs/psi4/share/psi4/basis/aug-cc-pvtz.gbs 
    atoms 3, 12      entry O          line   331 file /Users/moseschung/miniconda3/envs/psi4/share/psi4/basis/aug-cc-pvtz.gbs 
    atoms 4-9, 13-18 entry H          line    40 file /Users/moseschung/miniconda3/envs/psi4/share/psi4/basis/aug-cc-pvtz.gbs 


         ---------------------------------------------------------
                                   SCF
               by Justin Turney, Rob Parrish, Andy Simmonett
                          and Daniel G. A. Smith
                              RHF Reference
                       10 Threads,   9536 MiB Core
         ---------------------------------------------------------

  ==> Geometry <==

    Molecular point group: c1
    Full point group: C1

    Geometry (in Bohr), charge = 0, multiplicity = 1:

       Center              X                  Y                   Z               Mass       
    ------------   -----------------  -----------------  -----------------  -----------------
      Gh(C)           2.734647242590     0.954268229655     2.062836376907    12.000000000000
      Gh(C)           3.090076380896    -0.584671814586    -0.294678222826    12.000000000000
      Gh(O)           5.493656834389    -0.022334673077    -1.305781855430    15.994914619570
      Gh(H)           5.745101902916    -1.001842084864    -2.808900251237     1.007825032230
      Gh(H)           0.892243638766     0.556579146005     2.899372779220     1.007825032230
      Gh(H)           2.851647745921     2.969816099998     1.631697251109     1.007825032230
      Gh(H)           4.207152075164     0.514224714355     3.438985964070     1.007825032230
      Gh(H)           1.585017236358    -0.144919317109    -1.662350498590     1.007825032230
      Gh(H)           2.918404211029    -2.607544263391     0.149394188574     1.007825032230
         C           -3.832236081052     2.202485247852    -0.533172998215    12.000000000000
         C           -4.275686772556    -0.580735515067    -0.881833137540    12.000000000000
         O           -3.012300922751    -1.871399561493     1.081289950630    15.994914619570
         H           -3.323304489574    -3.649607279109     0.923374986956     1.007825032230
         H           -4.826403988120     3.290134126894    -1.975175761399     1.007825032230
         H           -1.819626734834     2.642439946024    -0.658650812945     1.007825032230
         H           -4.501034723291     2.808407032719     1.321880432293     1.007825032230
         H           -3.568651411895    -1.187401852027    -2.740656571669     1.007825032230
         H           -6.312193595357    -0.988479831431    -0.841950467663     1.007825032230

  Running in c1 symmetry.

  Rotational constants: A =      0.17109  B =      0.03837  C =      0.03752 [cm^-1]
  Rotational constants: A =   5129.16698  B =   1150.19187  C =   1124.84031 [MHz]
  Nuclear repulsion =   82.240418400885034

  Charge       = 0
  Multiplicity = 1
  Electrons    = 26
  Nalpha       = 13
  Nbeta        = 13

  ==> Algorithm <==

  SCF Algorithm Type is DF.
  DIIS enabled.
  MOM disabled.
  Fractional occupation disabled.
  Guess Type is SAD.
  Energy threshold   = 1.00e-08
  Density threshold  = 1.00e-08
  Integral threshold = 1.00e-12

  ==> Primary Basis <==

  Basis Set: AUG-CC-PVTZ
    Blend: AUG-CC-PVTZ
    Number of shells: 192
    Number of basis functions: 552
    Number of Cartesian functions: 630
    Spherical Harmonics?: true
    Max angular momentum: 3

   => Loading Basis Set <=

    Name: (AUG-CC-PVTZ AUX)
    Role: JKFIT
    Keyword: DF_BASIS_SCF
    atoms 1-2, 10-11 entry C          line   162 file /Users/moseschung/miniconda3/envs/psi4/share/psi4/basis/aug-cc-pvtz-jkfit.gbs 
    atoms 3, 12      entry O          line   286 file /Users/moseschung/miniconda3/envs/psi4/share/psi4/basis/aug-cc-pvtz-jkfit.gbs 
    atoms 4-9, 13-18 entry H          line    70 file /Users/moseschung/miniconda3/envs/psi4/share/psi4/basis/aug-cc-pvtz-jkfit.gbs 

  ==> Integral Setup <==

  DFHelper Memory: AOs need 2.613 GiB; user supplied 6.985 GiB. 
  Using in-core AOs.

  ==> MemDFJK: Density-Fitted J/K Matrices <==

    J tasked:                   Yes
    K tasked:                   Yes
    wK tasked:                   No
    OpenMP threads:              10
    Memory [MiB]:              7152
    Algorithm:                 Core
    Schwarz Cutoff:           1E-12
    Mask sparsity (%):       5.6612
    Fitting Condition:        1E-10

   => Auxiliary Basis Set <=

  Basis Set: (AUG-CC-PVTZ AUX)
    Blend: AUG-CC-PVTZ-JKFIT
    Number of shells: 348
    Number of basis functions: 1176
    Number of Cartesian functions: 1446
    Spherical Harmonics?: true
    Max angular momentum: 4

  Minimum eigenvalue in the overlap matrix is 8.2229459282E-06.
  Reciprocal condition number of the overlap matrix is 4.3724738378E-07.
    Using symmetric orthogonalization.

  ==> Pre-Iterations <==

  SCF Guess: Superposition of Atomic Densities via on-the-fly atomic UHF (no occupation information).

   -------------------------
    Irrep   Nso     Nmo    
   -------------------------
     A        552     552 
   -------------------------
    Total     552     552
   -------------------------

  ==> Iterations <==

                           Total Energy        Delta E     RMS |[F,P]|

   @DF-RHF iter SAD:  -153.44872279750953   -1.53449e+02   0.00000e+00 
   @DF-RHF iter   1:  -153.99882094603370   -5.50098e-01   9.60558e-04 ADIIS/DIIS
   @DF-RHF iter   2:  -154.11091732070454   -1.12096e-01   5.34600e-04 ADIIS/DIIS
   @DF-RHF iter   3:  -154.14387730666922   -3.29600e-02   8.43986e-05 DIIS
   @DF-RHF iter   4:  -154.14547386271460   -1.59656e-03   3.23391e-05 DIIS
   @DF-RHF iter   5:  -154.14565778406239   -1.83921e-04   5.76051e-06 DIIS
   @DF-RHF iter   6:  -154.14566738132115   -9.59726e-06   1.27445e-06 DIIS
   @DF-RHF iter   7:  -154.14566793562099   -5.54300e-07   3.91589e-07 DIIS
   @DF-RHF iter   8:  -154.14566797935586   -4.37349e-08   1.04991e-07 DIIS
   @DF-RHF iter   9:  -154.14566798354304   -4.18717e-09   2.53049e-08 DIIS
   @DF-RHF iter  10:  -154.14566798380710   -2.64066e-10   4.81650e-09 DIIS
  Energy and wave function converged.


  ==> Post-Iterations <==

    Orbital Energies [Eh]
    ---------------------

    Doubly Occupied:                                                      

       1A    -20.555702     2A    -11.273807     3A    -11.210883  
       4A     -1.361747     5A     -1.014044     6A     -0.833316  
       7A     -0.703358     8A     -0.645488     9A     -0.573963  
      10A     -0.533694    11A     -0.524226    12A     -0.489004  
      13A     -0.440009  

    Virtual:                                                              

      14A      0.023720    15A      0.033133    16A      0.036374  
      17A      0.038282    18A      0.052828    19A      0.053882  
      20A      0.054493    21A      0.060936    22A      0.067465  
      23A      0.076103    24A      0.081658    25A      0.088696  
      26A      0.099303    27A      0.106621    28A      0.114397  
      29A      0.119926    30A      0.121097    31A      0.127738  
      32A      0.133825    33A      0.136426    34A      0.147149  
      35A      0.154665    36A      0.158146    37A      0.158687  
      38A      0.164274    39A      0.170239    40A      0.177280  
      41A      0.188633    42A      0.194852    43A      0.198643  
      44A      0.207711    45A      0.216939    46A      0.226417  
      47A      0.235305    48A      0.249564    49A      0.257632  
      50A      0.260424    51A      0.271834    52A      0.278413  
      53A      0.289799    54A      0.292399    55A      0.298007  
      56A      0.303386    57A      0.306526    58A      0.313121  
      59A      0.316243    60A      0.318506    61A      0.331589  
      62A      0.332585    63A      0.337079    64A      0.341781  
      65A      0.346779    66A      0.356419    67A      0.357306  
      68A      0.361448    69A      0.371996    70A      0.376090  
      71A      0.378543    72A      0.390120    73A      0.397072  
      74A      0.398862    75A      0.408759    76A      0.416261  
      77A      0.418743    78A      0.426053    79A      0.432832  
      80A      0.437512    81A      0.445237    82A      0.450394  
      83A      0.452017    84A      0.460229    85A      0.463762  
      86A      0.472830    87A      0.476230    88A      0.483373  
      89A      0.489349    90A      0.490457    91A      0.492799  
      92A      0.503167    93A      0.504102    94A      0.515967  
      95A      0.521627    96A      0.522601    97A      0.534692  
      98A      0.539786    99A      0.544709   100A      0.549842  
     101A      0.559600   102A      0.570523   103A      0.573305  
     104A      0.578266   105A      0.589640   106A      0.595437  
     107A      0.596858   108A      0.607012   109A      0.613720  
     110A      0.620526   111A      0.629441   112A      0.638534  
     113A      0.644212   114A      0.653704   115A      0.656165  
     116A      0.661452   117A      0.663883   118A      0.679698  
     119A      0.682315   120A      0.692826   121A      0.713117  
     122A      0.716478   123A      0.733160   124A      0.736098  
     125A      0.740079   126A      0.773852   127A      0.787070  
     128A      0.797603   129A      0.806756   130A      0.810137  
     131A      0.831520   132A      0.833485   133A      0.837663  
     134A      0.856445   135A      0.858955   136A      0.879240  
     137A      0.888059   138A      0.891134   139A      0.900225  
     140A      0.903914   141A      0.913000   142A      0.914794  
     143A      0.930242   144A      0.935415   145A      0.940436  
     146A      0.948455   147A      0.956588   148A      0.972144  
     149A      0.978176   150A      0.985736   151A      0.991163  
     152A      1.006597   153A      1.015348   154A      1.019077  
     155A      1.019359   156A      1.029069   157A      1.031895  
     158A      1.034899   159A      1.044753   160A      1.051288  
     161A      1.063562   162A      1.068864   163A      1.072065  
     164A      1.073357   165A      1.083961   166A      1.091563  
     167A      1.102912   168A      1.105493   169A      1.115298  
     170A      1.118436   171A      1.126897   172A      1.130661  
     173A      1.135484   174A      1.143724   175A      1.155779  
     176A      1.159236   177A      1.165733   178A      1.167528  
     179A      1.185434   180A      1.189896   181A      1.195025  
     182A      1.201583   183A      1.211648   184A      1.214027  
     185A      1.222933   186A      1.225826   187A      1.243673  
     188A      1.249576   189A      1.254499   190A      1.257035  
     191A      1.264414   192A      1.280918   193A      1.281480  
     194A      1.292837   195A      1.299651   196A      1.313228  
     197A      1.316042   198A      1.328743   199A      1.344003  
     200A      1.347409   201A      1.352287   202A      1.361115  
     203A      1.365842   204A      1.376187   205A      1.382473  
     206A      1.386457   207A      1.407154   208A      1.418569  
     209A      1.420369   210A      1.433771   211A      1.442619  
     212A      1.449188   213A      1.456382   214A      1.469099  
     215A      1.477192   216A      1.483184   217A      1.495145  
     218A      1.511998   219A      1.519882   220A      1.533398  
     221A      1.537226   222A      1.553226   223A      1.558529  
     224A      1.572540   225A      1.584060   226A      1.589097  
     227A      1.594220   228A      1.611582   229A      1.618635  
     230A      1.626573   231A      1.630839   232A      1.647200  
     233A      1.660461   234A      1.681675   235A      1.685916  
     236A      1.693388   237A      1.714447   238A      1.717296  
     239A      1.723668   240A      1.735089   241A      1.736084  
     242A      1.763185   243A      1.773097   244A      1.787258  
     245A      1.790070   246A      1.805291   247A      1.811123  
     248A      1.829275   249A      1.833703   250A      1.839189  
     251A      1.858082   252A      1.872880   253A      1.886496  
     254A      1.896607   255A      1.903807   256A      1.923526  
     257A      1.928953   258A      1.933749   259A      1.950681  
     260A      1.956351   261A      1.964437   262A      1.978352  
     263A      1.982251   264A      1.996859   265A      2.011717  
     266A      2.018990   267A      2.031137   268A      2.042576  
     269A      2.050516   270A      2.068775   271A      2.086517  
     272A      2.098771   273A      2.113444   274A      2.115178  
     275A      2.125121   276A      2.129557   277A      2.150146  
     278A      2.158743   279A      2.179445   280A      2.190824  
     281A      2.199698   282A      2.211040   283A      2.224163  
     284A      2.245799   285A      2.256089   286A      2.266993  
     287A      2.274811   288A      2.283211   289A      2.315907  
     290A      2.318621   291A      2.337334   292A      2.350884  
     293A      2.372199   294A      2.385299   295A      2.400026  
     296A      2.446846   297A      2.457867   298A      2.462299  
     299A      2.474347   300A      2.490470   301A      2.508542  
     302A      2.518512   303A      2.549213   304A      2.568582  
     305A      2.590513   306A      2.603871   307A      2.632305  
     308A      2.651962   309A      2.681363   310A      2.695165  
     311A      2.706897   312A      2.737402   313A      2.747958  
     314A      2.756794   315A      2.780316   316A      2.784696  
     317A      2.799075   318A      2.808064   319A      2.829002  
     320A      2.849756   321A      2.869073   322A      2.888258  
     323A      2.918606   324A      2.942689   325A      2.959533  
     326A      2.996339   327A      3.024897   328A      3.042058  
     329A      3.060021   330A      3.075314   331A      3.091725  
     332A      3.136536   333A      3.163537   334A      3.188258  
     335A      3.203880   336A      3.276482   337A      3.288551  
     338A      3.314972   339A      3.368752   340A      3.376195  
     341A      3.424574   342A      3.475980   343A      3.490721  
     344A      3.500269   345A      3.526759   346A      3.531072  
     347A      3.585172   348A      3.631638   349A      3.646889  
     350A      3.659741   351A      3.675472   352A      3.685914  
     353A      3.719930   354A      3.746525   355A      3.762167  
     356A      3.777651   357A      3.801765   358A      3.817162  
     359A      3.844694   360A      3.862324   361A      3.879745  
     362A      3.902365   363A      3.937830   364A      3.964665  
     365A      3.998194   366A      4.000688   367A      4.043555  
     368A      4.055883   369A      4.066350   370A      4.091518  
     371A      4.098675   372A      4.106356   373A      4.126338  
     374A      4.129348   375A      4.151485   376A      4.170299  
     377A      4.197896   378A      4.200985   379A      4.213382  
     380A      4.226289   381A      4.243152   382A      4.259013  
     383A      4.275045   384A      4.287346   385A      4.321679  
     386A      4.334209   387A      4.344694   388A      4.359019  
     389A      4.376898   390A      4.397155   391A      4.409368  
     392A      4.422912   393A      4.450694   394A      4.468319  
     395A      4.490210   396A      4.497866   397A      4.509964  
     398A      4.534259   399A      4.547763   400A      4.568548  
     401A      4.586541   402A      4.592882   403A      4.604002  
     404A      4.620821   405A      4.626998   406A      4.631426  
     407A      4.677868   408A      4.684631   409A      4.686748  
     410A      4.700303   411A      4.711558   412A      4.737506  
     413A      4.753121   414A      4.762449   415A      4.797826  
     416A      4.808649   417A      4.820954   418A      4.845826  
     419A      4.873610   420A      4.895832   421A      4.902159  
     422A      4.911165   423A      4.921672   424A      4.947220  
     425A      4.947971   426A      4.957063   427A      4.992750  
     428A      5.010803   429A      5.028857   430A      5.035060  
     431A      5.054740   432A      5.069208   433A      5.081375  
     434A      5.092292   435A      5.115681   436A      5.126804  
     437A      5.150771   438A      5.158865   439A      5.171840  
     440A      5.216296   441A      5.229696   442A      5.245881  
     443A      5.258918   444A      5.275222   445A      5.316975  
     446A      5.333117   447A      5.345516   448A      5.354978  
     449A      5.370417   450A      5.384934   451A      5.386789  
     452A      5.426567   453A      5.447471   454A      5.464026  
     455A      5.492811   456A      5.523406   457A      5.526997  
     458A      5.549391   459A      5.556901   460A      5.576366  
     461A      5.588457   462A      5.600531   463A      5.613091  
     464A      5.634976   465A      5.652123   466A      5.682807  
     467A      5.704066   468A      5.751777   469A      5.756479  
     470A      5.765615   471A      5.768974   472A      5.802804  
     473A      5.829151   474A      5.857361   475A      5.873982  
     476A      5.891700   477A      5.962723   478A      6.015210  
     479A      6.026272   480A      6.036358   481A      6.055120  
     482A      6.083092   483A      6.118595   484A      6.169567  
     485A      6.186342   486A      6.203265   487A      6.229568  
     488A      6.234010   489A      6.290736   490A      6.325384  
     491A      6.333129   492A      6.351883   493A      6.415272  
     494A      6.509906   495A      6.562834   496A      6.733600  
     497A      6.758004   498A      6.834311   499A      6.869874  
     500A      6.879956   501A      6.887780   502A      6.945264  
     503A      6.991339   504A      7.003266   505A      7.071058  
     506A      7.101525   507A      7.178915   508A      7.222053  
     509A      7.231558   510A      7.302091   511A      7.371046  
     512A      7.414097   513A      7.558653   514A      7.567291  
     515A      7.677282   516A      7.759996   517A      7.845090  
     518A      7.857598   519A      7.868522   520A      7.875929  
     521A      7.901946   522A      7.910385   523A      7.968345  
     524A      8.017778   525A      8.111402   526A      8.183445  
     527A      8.201748   528A      8.297376   529A      8.373487  
     530A      8.403033   531A      8.410964   532A      8.590503  
     533A      8.672890   534A      8.892608   535A      9.080906  
     536A      9.931429   537A     10.100042   538A     10.374978  
     539A     10.399979   540A     10.450849   541A     10.843840  
     542A     11.112765   543A     11.929637   544A     12.282573  
     545A     13.302346   546A     14.133043   547A     16.172893  
     548A     18.063458   549A     18.551381   550A     53.375042  
     551A     54.710733   552A     65.970172  

    Final Occupation by Irrep:
              A 
    DOCC [    13 ]
    NA   [    13 ]
    NB   [    13 ]

  @DF-RHF Final Energy:  -154.14566798380710

   => Energetics <=

    Nuclear Repulsion Energy =             82.2404184008850336
    One-Electron Energy =                -372.4536881206917087
    Two-Electron Energy =                 136.0676017359996024
    Total Energy =                       -154.1456679838071011

Computation Completed


Properties will be evaluated at   0.000000,   0.000000,   0.000000 [a0]

Properties computed using the SCF density matrix


 Multipole Moments:

 ------------------------------------------------------------------------------------
     Multipole            Electronic (a.u.)      Nuclear  (a.u.)        Total (a.u.)
 ------------------------------------------------------------------------------------

 L = 1.  Multiply by 2.5417464519 to convert [e a0] to [Debye]
 Dipole X            :         96.7257373          -97.0971594           -0.3714221
 Dipole Y            :          2.0553938           -2.3252060           -0.2698122
 Dipole Z            :          3.3406023           -3.8108954           -0.4702931
 Magnitude           :                                                    0.6572128

 ------------------------------------------------------------------------------------

*** tstop() called on Moses-MBP.lan at Thu Feb 27 17:47:00 2025
Module time:
	user time   =      71.75 seconds =       1.20 minutes
	system time =       6.14 seconds =       0.10 minutes
	total time  =         10 seconds =       0.17 minutes
Total time:
	user time   =      71.75 seconds =       1.20 minutes
	system time =       6.14 seconds =       0.10 minutes
	total time  =         10 seconds =       0.17 minutes

*** tstart() called on Moses-MBP.lan
*** at Thu Feb 27 17:47:00 2025


  //>>>>>>>>>>>>>>>>>>>>>>>>>>>>>>>>>>>//
  //               DFMP2               //
  //<<<<<<<<<<<<<<<<<<<<<<<<<<<<<<<<<<<//

   => Loading Basis Set <=

    Name: (AUG-CC-PVTZ AUX)
    Role: RIFIT
    Keyword: DF_BASIS_MP2
    atoms 1-2, 10-11 entry C          line   148 file /Users/moseschung/miniconda3/envs/psi4/share/psi4/basis/aug-cc-pvtz-ri.gbs 
    atoms 3, 12      entry O          line   264 file /Users/moseschung/miniconda3/envs/psi4/share/psi4/basis/aug-cc-pvtz-ri.gbs 
    atoms 4-9, 13-18 entry H          line    30 file /Users/moseschung/miniconda3/envs/psi4/share/psi4/basis/aug-cc-pvtz-ri.gbs 

	 --------------------------------------------------------
	                          DF-MP2                         
	      2nd-Order Density-Fitted Moller-Plesset Theory     
	              RMP2 Wavefunction,  10 Threads             
	                                                         
	        Rob Parrish, Justin Turney, Andy Simmonett,      
	           Ed Hohenstein, and C. David Sherrill          
	 --------------------------------------------------------

   => Auxiliary Basis Set <=

  Basis Set: (AUG-CC-PVTZ AUX)
    Blend: AUG-CC-PVTZ-RI
    Number of shells: 336
    Number of basis functions: 1188
    Number of Cartesian functions: 1476
    Spherical Harmonics?: true
    Max angular momentum: 4

	 --------------------------------------------------------
	                 NBF =   552, NAUX =  1188
	 --------------------------------------------------------
	   CLASS    FOCC     OCC    AOCC    AVIR     VIR    FVIR
	   PAIRS       0      13      13     539     539       0
	 --------------------------------------------------------

	-----------------------------------------------------------
	 ==================> DF-MP2 Energies <==================== 
	-----------------------------------------------------------
	 Reference Energy          =    -154.1456679838071011 [Eh]
	 Singles Energy            =      -0.0000000000000000 [Eh]
	 Same-Spin Energy          =      -0.1481241909071160 [Eh]
	 Opposite-Spin Energy      =      -0.5182327932673629 [Eh]
	 Correlation Energy        =      -0.6663569841744790 [Eh]
	 Total Energy              =    -154.8120249679815856 [Eh]
	-----------------------------------------------------------
	 ================> DF-SCS-MP2 Energies <================== 
	-----------------------------------------------------------
	 SCS Same-Spin Scale       =       0.3333333333333333 [-]
	 SCS Opposite-Spin Scale   =       1.2000000000000000 [-]
	 SCS Same-Spin Energy      =      -0.0493747303023720 [Eh]
	 SCS Opposite-Spin Energy  =      -0.6218793519208355 [Eh]
	 SCS Correlation Energy    =      -0.6712540822232076 [Eh]
	 SCS Total Energy          =    -154.8169220660303154 [Eh]
	-----------------------------------------------------------


*** tstop() called on Moses-MBP.lan at Thu Feb 27 17:47:03 2025
Module time:
	user time   =      20.53 seconds =       0.34 minutes
	system time =       1.94 seconds =       0.03 minutes
	total time  =          3 seconds =       0.05 minutes
Total time:
	user time   =      92.29 seconds =       1.54 minutes
	system time =       8.08 seconds =       0.13 minutes
	total time  =         13 seconds =       0.22 minutes

    Psi4 stopped on: Thursday, 27 February 2025 05:47PM
    Psi4 wall time for execution: 0:00:12.95


    -----------------------------------------------------------------------
          Psi4: An Open-Source Ab Initio Electronic Structure Package
                               Psi4 1.9.1 release

                         Git: Rev {} zzzzzzz 


    D. G. A. Smith, L. A. Burns, A. C. Simmonett, R. M. Parrish,
    M. C. Schieber, R. Galvelis, P. Kraus, H. Kruse, R. Di Remigio,
    A. Alenaizan, A. M. James, S. Lehtola, J. P. Misiewicz, M. Scheurer,
    R. A. Shaw, J. B. Schriber, Y. Xie, Z. L. Glick, D. A. Sirianni,
    J. S. O'Brien, J. M. Waldrop, A. Kumar, E. G. Hohenstein,
    B. P. Pritchard, B. R. Brooks, H. F. Schaefer III, A. Yu. Sokolov,
    K. Patkowski, A. E. DePrince III, U. Bozkaya, R. A. King,
    F. A. Evangelista, J. M. Turney, T. D. Crawford, C. D. Sherrill,
    J. Chem. Phys. 152(18) 184108 (2020). https://doi.org/10.1063/5.0006002

                            Additional Code Authors
    E. T. Seidl, C. L. Janssen, E. F. Valeev, M. L. Leininger,
    J. F. Gonthier, R. M. Richard, H. R. McAlexander, M. Saitow, X. Wang,
    P. Verma, M. H. Lechner, A. Jiang, S. Behnle, A. G. Heide,
    M. F. Herbst, and D. L. Poole

             Previous Authors, Complete List of Code Contributors,
                       and Citations for Specific Modules
    https://github.com/psi4/psi4/blob/master/codemeta.json
    https://github.com/psi4/psi4/graphs/contributors
    http://psicode.org/psi4manual/master/introduction.html#citing-psifour

    -----------------------------------------------------------------------


    Psi4 started on: Thursday, 27 February 2025 05:46PM

    Process ID: 32166
    Host:       Moses-MBP.lan
    PSIDATADIR: /Users/moseschung/miniconda3/envs/psi4/share/psi4
    Memory:     9.3 GiB
    Threads:    10
    
  ==> Input QCSchema <==

--------------------------------------------------------------------------
{'driver': 'energy',
 'extras': {'psiapi': True, 'wfn_qcvars_only': True},
 'id': None,
 'keywords': {'SCF_TYPE': 'DF', 'function_kwargs': {}},
 'model': {'basis': 'aug-cc-pvtz', 'method': 'mp2'},
 'molecule': {'atom_labels': ['', '', '', '', '', '', '', '', '', '', '', '', '', '', '', '', '', ''],
              'atomic_numbers': [6, 6, 8, 1, 1, 1, 1, 1, 1, 6, 6, 8, 1, 1, 1, 1, 1, 1],
              'extras': {},
              'fix_com': True,
              'fix_orientation': True,
              'fix_symmetry': 'c1',
              'fragment_charges': [0.0, 0.0],
              'fragment_multiplicities': [1, 1],
              'fragments': [[0, 1, 2, 3, 4, 5, 6, 7, 8], [9, 10, 11, 12, 13, 14, 15, 16, 17]],
              'geometry': [2.7346472425896544, 0.9542682296553177, 2.062836376906518, 3.0900763808963894,
                           -0.5846718145860247, -0.2946782228255173, 5.493656834388711, -0.02233467307678607,
                           -1.3057818554301046, 5.745101902916003, -1.0018420848637184, -2.8089002512372683,
                           0.8922436387655408, 0.5565791460049686, 2.8993727792196875, 2.85164774592125,
                           2.9698160999983787, 1.6316972511094399, 4.207152075164401, 0.5142247143550824,
                           3.4389859640702958, 1.5850172363583808, -0.14491931710910994, -1.6623504985904913,
                           2.9184042110291735, -2.6075442633913606, 0.14939418857419406, -3.8322360810519442,
                           2.202485247851726, -0.5331729982150479, -4.27568677255638, -0.5807355150666961,
                           -0.8818331375403937, -3.012300922750922, -1.8713995614931382, 1.0812899506302165,
                           -3.3233044895742694, -3.6496072791093237, 0.9233749869563329, -4.826403988120179,
                           3.290134126894108, -1.9751757613987801, -1.81962673483397, 2.642439946024065,
                           -0.6586508129454478, -4.501034723291101, 2.808407032718524, 1.32188043229288,
                           -3.5686514118947104, -1.1874018520269245, -2.74065657166861, -6.312193595356894,
                           -0.9884798314306062, -0.8419504676626063],
              'mass_numbers': [12, 12, 16, 1, 1, 1, 1, 1, 1, 12, 12, 16, 1, 1, 1, 1, 1, 1],
              'masses': [12.0, 12.0, 15.99491461957, 1.00782503223, 1.00782503223, 1.00782503223, 1.00782503223,
                         1.00782503223, 1.00782503223, 12.0, 12.0, 15.99491461957, 1.00782503223, 1.00782503223,
                         1.00782503223, 1.00782503223, 1.00782503223, 1.00782503223],
              'molecular_charge': 0.0,
              'molecular_multiplicity': 1,
              'name': 'dimer',
              'provenance': {'creator': 'QCElemental',
                             'routine': 'qcelemental.molparse.from_string',
                             'version': '0.29.0'},
              'real': [True, True, True, True, True, True, True, True, True, False, False, False, False, False, False,
                       False, False, False],
              'schema_name': 'qcschema_molecule',
              'schema_version': 2,
              'symbols': ['C', 'C', 'O', 'H', 'H', 'H', 'H', 'H', 'H', 'C', 'C', 'O', 'H', 'H', 'H', 'H', 'H', 'H'],
              'validated': True},
 'protocols': {'stdout': True},
 'provenance': {'creator': 'QCElemental', 'routine': 'qcelemental.models.results', 'version': '0.29.0'},
 'schema_name': 'qcschema_input',
 'schema_version': 1}
--------------------------------------------------------------------------

Scratch directory: /tmp/
   => Libint2 <=

    Primary   basis highest AM E, G, H:  6, 6, 3
    Auxiliary basis highest AM E, G, H:  7, 7, 4
    Onebody   basis highest AM E, G, H:  -, -, -
    Solid Harmonics ordering:            Gaussian

*** tstart() called on Moses-MBP.lan
*** at Thu Feb 27 17:47:03 2025

   => Loading Basis Set <=

    Name: AUG-CC-PVTZ
    Role: ORBITAL
    Keyword: BASIS
    atoms 1-2, 10-11 entry C          line   239 file /Users/moseschung/miniconda3/envs/psi4/share/psi4/basis/aug-cc-pvtz.gbs 
    atoms 3, 12      entry O          line   331 file /Users/moseschung/miniconda3/envs/psi4/share/psi4/basis/aug-cc-pvtz.gbs 
    atoms 4-9, 13-18 entry H          line    40 file /Users/moseschung/miniconda3/envs/psi4/share/psi4/basis/aug-cc-pvtz.gbs 


         ---------------------------------------------------------
                                   SCF
               by Justin Turney, Rob Parrish, Andy Simmonett
                          and Daniel G. A. Smith
                              RHF Reference
                       10 Threads,   9536 MiB Core
         ---------------------------------------------------------

  ==> Geometry <==

    Molecular point group: c1
    Full point group: C1

    Geometry (in Bohr), charge = 0, multiplicity = 1:

       Center              X                  Y                   Z               Mass       
    ------------   -----------------  -----------------  -----------------  -----------------
         C            2.734647242590     0.954268229655     2.062836376907    12.000000000000
         C            3.090076380896    -0.584671814586    -0.294678222826    12.000000000000
         O            5.493656834389    -0.022334673077    -1.305781855430    15.994914619570
         H            5.745101902916    -1.001842084864    -2.808900251237     1.007825032230
         H            0.892243638766     0.556579146005     2.899372779220     1.007825032230
         H            2.851647745921     2.969816099998     1.631697251109     1.007825032230
         H            4.207152075164     0.514224714355     3.438985964070     1.007825032230
         H            1.585017236358    -0.144919317109    -1.662350498590     1.007825032230
         H            2.918404211029    -2.607544263391     0.149394188574     1.007825032230
      Gh(C)          -3.832236081052     2.202485247852    -0.533172998215    12.000000000000
      Gh(C)          -4.275686772556    -0.580735515067    -0.881833137540    12.000000000000
      Gh(O)          -3.012300922751    -1.871399561493     1.081289950630    15.994914619570
      Gh(H)          -3.323304489574    -3.649607279109     0.923374986956     1.007825032230
      Gh(H)          -4.826403988120     3.290134126894    -1.975175761399     1.007825032230
      Gh(H)          -1.819626734834     2.642439946024    -0.658650812945     1.007825032230
      Gh(H)          -4.501034723291     2.808407032719     1.321880432293     1.007825032230
      Gh(H)          -3.568651411895    -1.187401852027    -2.740656571669     1.007825032230
      Gh(H)          -6.312193595357    -0.988479831431    -0.841950467663     1.007825032230

  Running in c1 symmetry.

  Rotational constants: A =      0.17109  B =      0.03837  C =      0.03752 [cm^-1]
  Rotational constants: A =   5129.16698  B =   1150.19187  C =   1124.84031 [MHz]
  Nuclear repulsion =   82.247833282709209

  Charge       = 0
  Multiplicity = 1
  Electrons    = 26
  Nalpha       = 13
  Nbeta        = 13

  ==> Algorithm <==

  SCF Algorithm Type is DF.
  DIIS enabled.
  MOM disabled.
  Fractional occupation disabled.
  Guess Type is SAD.
  Energy threshold   = 1.00e-08
  Density threshold  = 1.00e-08
  Integral threshold = 1.00e-12

  ==> Primary Basis <==

  Basis Set: AUG-CC-PVTZ
    Blend: AUG-CC-PVTZ
    Number of shells: 192
    Number of basis functions: 552
    Number of Cartesian functions: 630
    Spherical Harmonics?: true
    Max angular momentum: 3

   => Loading Basis Set <=

    Name: (AUG-CC-PVTZ AUX)
    Role: JKFIT
    Keyword: DF_BASIS_SCF
    atoms 1-2, 10-11 entry C          line   162 file /Users/moseschung/miniconda3/envs/psi4/share/psi4/basis/aug-cc-pvtz-jkfit.gbs 
    atoms 3, 12      entry O          line   286 file /Users/moseschung/miniconda3/envs/psi4/share/psi4/basis/aug-cc-pvtz-jkfit.gbs 
    atoms 4-9, 13-18 entry H          line    70 file /Users/moseschung/miniconda3/envs/psi4/share/psi4/basis/aug-cc-pvtz-jkfit.gbs 

  ==> Integral Setup <==

  DFHelper Memory: AOs need 2.613 GiB; user supplied 6.985 GiB. 
  Using in-core AOs.

  ==> MemDFJK: Density-Fitted J/K Matrices <==

    J tasked:                   Yes
    K tasked:                   Yes
    wK tasked:                   No
    OpenMP threads:              10
    Memory [MiB]:              7152
    Algorithm:                 Core
    Schwarz Cutoff:           1E-12
    Mask sparsity (%):       5.6612
    Fitting Condition:        1E-10

   => Auxiliary Basis Set <=

  Basis Set: (AUG-CC-PVTZ AUX)
    Blend: AUG-CC-PVTZ-JKFIT
    Number of shells: 348
    Number of basis functions: 1176
    Number of Cartesian functions: 1446
    Spherical Harmonics?: true
    Max angular momentum: 4

  Minimum eigenvalue in the overlap matrix is 8.2229459282E-06.
  Reciprocal condition number of the overlap matrix is 4.3724738378E-07.
    Using symmetric orthogonalization.

  ==> Pre-Iterations <==

  SCF Guess: Superposition of Atomic Densities via on-the-fly atomic UHF (no occupation information).

   -------------------------
    Irrep   Nso     Nmo    
   -------------------------
     A        552     552 
   -------------------------
    Total     552     552
   -------------------------

  ==> Iterations <==

                           Total Energy        Delta E     RMS |[F,P]|

   @DF-RHF iter SAD:  -153.45105920296260   -1.53451e+02   0.00000e+00 
   @DF-RHF iter   1:  -153.99869701260059   -5.47638e-01   9.60516e-04 ADIIS/DIIS
   @DF-RHF iter   2:  -154.11087710616104   -1.12180e-01   5.34036e-04 ADIIS/DIIS
   @DF-RHF iter   3:  -154.14378149938068   -3.29044e-02   8.44128e-05 DIIS
   @DF-RHF iter   4:  -154.14537790340984   -1.59640e-03   3.23593e-05 DIIS
   @DF-RHF iter   5:  -154.14556193236660   -1.84029e-04   5.76084e-06 DIIS
   @DF-RHF iter   6:  -154.14557151492653   -9.58256e-06   1.27623e-06 DIIS
   @DF-RHF iter   7:  -154.14557206925286   -5.54326e-07   3.92123e-07 DIIS
   @DF-RHF iter   8:  -154.14557211298984   -4.37370e-08   1.04790e-07 DIIS
   @DF-RHF iter   9:  -154.14557211715660   -4.16676e-09   2.51808e-08 DIIS
   @DF-RHF iter  10:  -154.14557211741686   -2.60258e-10   4.77920e-09 DIIS
  Energy and wave function converged.


  ==> Post-Iterations <==

    Orbital Energies [Eh]
    ---------------------

    Doubly Occupied:                                                      

       1A    -20.556085     2A    -11.273684     3A    -11.210959  
       4A     -1.362026     5A     -1.014653     6A     -0.832642  
       7A     -0.703804     8A     -0.645060     9A     -0.574610  
      10A     -0.534143    11A     -0.524143    12A     -0.489205  
      13A     -0.439741  

    Virtual:                                                              

      14A      0.020202    15A      0.032352    16A      0.034972  
      17A      0.037603    18A      0.051392    19A      0.053855  
      20A      0.054995    21A      0.059726    22A      0.065378  
      23A      0.077897    24A      0.079968    25A      0.086666  
      26A      0.093834    27A      0.107574    28A      0.110318  
      29A      0.116994    30A      0.118393    31A      0.122949  
      32A      0.131067    33A      0.136265    34A      0.144671  
      35A      0.150747    36A      0.158191    37A      0.162506  
      38A      0.163326    39A      0.172422    40A      0.175158  
      41A      0.184777    42A      0.193827    43A      0.204807  
      44A      0.210580    45A      0.211156    46A      0.217090  
      47A      0.234672    48A      0.245839    49A      0.251176  
      50A      0.259409    51A      0.264227    52A      0.273193  
      53A      0.278569    54A      0.290074    55A      0.293603  
      56A      0.298621    57A      0.304617    58A      0.312248  
      59A      0.315580    60A      0.319611    61A      0.324353  
      62A      0.335082    63A      0.344660    64A      0.346452  
      65A      0.351581    66A      0.355380    67A      0.359906  
      68A      0.363391    69A      0.366185    70A      0.376304  
      71A      0.377103    72A      0.379696    73A      0.392236  
      74A      0.397696    75A      0.401449    76A      0.404847  
      77A      0.415929    78A      0.418075    79A      0.424941  
      80A      0.435576    81A      0.437847    82A      0.447878  
      83A      0.449164    84A      0.457553    85A      0.461568  
      86A      0.467643    87A      0.470189    88A      0.472847  
      89A      0.476456    90A      0.482774    91A      0.486958  
      92A      0.494829    93A      0.501103    94A      0.508972  
      95A      0.513843    96A      0.520160    97A      0.528232  
      98A      0.537159    99A      0.545462   100A      0.550694  
     101A      0.560263   102A      0.570935   103A      0.574302  
     104A      0.581091   105A      0.587668   106A      0.594037  
     107A      0.598478   108A      0.604090   109A      0.610148  
     110A      0.623332   111A      0.628316   112A      0.634239  
     113A      0.644499   114A      0.647736   115A      0.655265  
     116A      0.666934   117A      0.671678   118A      0.676995  
     119A      0.691781   120A      0.696679   121A      0.704243  
     122A      0.714166   123A      0.723342   124A      0.733154  
     125A      0.750602   126A      0.758716   127A      0.770248  
     128A      0.778385   129A      0.782034   130A      0.802068  
     131A      0.810467   132A      0.816718   133A      0.835551  
     134A      0.844642   135A      0.863883   136A      0.866883  
     137A      0.877010   138A      0.882747   139A      0.889738  
     140A      0.895031   141A      0.901761   142A      0.913121  
     143A      0.915678   144A      0.924143   145A      0.933851  
     146A      0.939860   147A      0.954020   148A      0.959153  
     149A      0.975113   150A      0.985189   151A      0.989997  
     152A      0.995481   153A      1.002555   154A      1.011114  
     155A      1.020815   156A      1.027958   157A      1.030421  
     158A      1.040300   159A      1.045406   160A      1.048209  
     161A      1.051085   162A      1.066867   163A      1.071945  
     164A      1.078753   165A      1.085599   166A      1.090111  
     167A      1.098370   168A      1.100605   169A      1.105919  
     170A      1.111804   171A      1.122758   172A      1.133904  
     173A      1.138809   174A      1.142190   175A      1.146914  
     176A      1.154187   177A      1.157248   178A      1.169551  
     179A      1.177056   180A      1.183962   181A      1.189527  
     182A      1.198501   183A      1.205897   184A      1.217668  
     185A      1.222217   186A      1.230872   187A      1.243714  
     188A      1.248353   189A      1.262281   190A      1.262902  
     191A      1.271429   192A      1.273102   193A      1.283451  
     194A      1.289230   195A      1.292753   196A      1.298131  
     197A      1.311059   198A      1.316253   199A      1.324032  
     200A      1.337911   201A      1.345203   202A      1.354571  
     203A      1.364510   204A      1.370562   205A      1.376945  
     206A      1.393416   207A      1.400028   208A      1.406099  
     209A      1.419111   210A      1.422959   211A      1.440968  
     212A      1.446347   213A      1.454629   214A      1.464771  
     215A      1.476969   216A      1.494694   217A      1.502400  
     218A      1.508550   219A      1.514588   220A      1.534095  
     221A      1.539005   222A      1.546630   223A      1.554626  
     224A      1.568671   225A      1.574151   226A      1.577856  
     227A      1.588897   228A      1.594083   229A      1.602886  
     230A      1.605346   231A      1.619223   232A      1.635968  
     233A      1.653860   234A      1.674693   235A      1.682900  
     236A      1.689246   237A      1.696047   238A      1.710535  
     239A      1.725394   240A      1.734199   241A      1.738633  
     242A      1.755433   243A      1.758329   244A      1.768350  
     245A      1.775646   246A      1.784283   247A      1.790492  
     248A      1.810227   249A      1.816642   250A      1.823159  
     251A      1.840719   252A      1.845458   253A      1.873688  
     254A      1.885712   255A      1.893447   256A      1.902107  
     257A      1.907117   258A      1.923722   259A      1.949341  
     260A      1.957067   261A      1.960718   262A      1.973248  
     263A      1.986118   264A      1.996561   265A      2.016309  
     266A      2.026769   267A      2.034800   268A      2.038220  
     269A      2.048328   270A      2.065361   271A      2.079169  
     272A      2.086542   273A      2.102341   274A      2.112659  
     275A      2.123596   276A      2.136270   277A      2.140827  
     278A      2.154349   279A      2.175971   280A      2.189736  
     281A      2.200255   282A      2.213507   283A      2.217710  
     284A      2.235787   285A      2.249449   286A      2.256055  
     287A      2.260312   288A      2.275079   289A      2.296308  
     290A      2.303212   291A      2.326930   292A      2.347137  
     293A      2.350176   294A      2.360479   295A      2.390850  
     296A      2.404681   297A      2.441755   298A      2.451476  
     299A      2.460530   300A      2.472822   301A      2.516733  
     302A      2.521712   303A      2.525753   304A      2.559114  
     305A      2.572193   306A      2.585575   307A      2.609157  
     308A      2.619762   309A      2.653368   310A      2.674054  
     311A      2.686329   312A      2.705131   313A      2.713744  
     314A      2.738917   315A      2.752853   316A      2.796934  
     317A      2.803097   318A      2.812442   319A      2.848102  
     320A      2.862931   321A      2.865616   322A      2.913010  
     323A      2.932791   324A      2.944836   325A      2.963833  
     326A      2.989735   327A      3.014664   328A      3.029617  
     329A      3.048787   330A      3.070382   331A      3.108250  
     332A      3.132296   333A      3.169392   334A      3.204056  
     335A      3.216803   336A      3.265638   337A      3.319698  
     338A      3.321666   339A      3.359401   340A      3.406672  
     341A      3.424950   342A      3.471717   343A      3.505781  
     344A      3.518527   345A      3.537942   346A      3.541021  
     347A      3.562282   348A      3.593475   349A      3.615475  
     350A      3.628571   351A      3.639810   352A      3.669121  
     353A      3.699966   354A      3.713237   355A      3.767031  
     356A      3.782653   357A      3.826775   358A      3.837725  
     359A      3.846532   360A      3.865400   361A      3.885010  
     362A      3.907028   363A      3.939298   364A      3.974898  
     365A      3.987337   366A      4.005269   367A      4.015794  
     368A      4.026736   369A      4.051612   370A      4.084569  
     371A      4.087845   372A      4.106015   373A      4.118537  
     374A      4.133921   375A      4.147560   376A      4.160513  
     377A      4.174500   378A      4.181171   379A      4.202460  
     380A      4.224291   381A      4.231665   382A      4.235348  
     383A      4.257690   384A      4.282726   385A      4.305936  
     386A      4.311819   387A      4.342673   388A      4.344874  
     389A      4.350376   390A      4.368833   391A      4.397356  
     392A      4.419310   393A      4.453349   394A      4.461703  
     395A      4.485020   396A      4.495299   397A      4.515785  
     398A      4.524769   399A      4.531537   400A      4.562621  
     401A      4.568782   402A      4.597885   403A      4.610242  
     404A      4.621241   405A      4.641759   406A      4.654478  
     407A      4.673172   408A      4.695169   409A      4.701894  
     410A      4.708599   411A      4.722748   412A      4.733919  
     413A      4.755991   414A      4.763845   415A      4.803762  
     416A      4.812335   417A      4.829424   418A      4.858142  
     419A      4.866707   420A      4.878664   421A      4.894751  
     422A      4.904794   423A      4.925591   424A      4.930628  
     425A      4.940775   426A      4.958616   427A      4.967300  
     428A      4.996904   429A      5.012590   430A      5.023892  
     431A      5.044027   432A      5.057820   433A      5.069427  
     434A      5.093562   435A      5.105656   436A      5.116742  
     437A      5.129805   438A      5.154098   439A      5.185391  
     440A      5.188447   441A      5.214695   442A      5.235910  
     443A      5.245314   444A      5.262940   445A      5.283474  
     446A      5.319454   447A      5.356581   448A      5.358317  
     449A      5.367224   450A      5.385691   451A      5.402517  
     452A      5.419680   453A      5.434541   454A      5.440833  
     455A      5.478043   456A      5.513749   457A      5.530020  
     458A      5.539990   459A      5.552075   460A      5.565188  
     461A      5.588050   462A      5.597654   463A      5.608220  
     464A      5.618659   465A      5.648086   466A      5.655240  
     467A      5.692234   468A      5.723491   469A      5.742908  
     470A      5.751844   471A      5.768426   472A      5.793220  
     473A      5.825144   474A      5.840234   475A      5.865865  
     476A      5.920026   477A      5.956141   478A      5.987784  
     479A      6.014098   480A      6.024504   481A      6.060423  
     482A      6.077877   483A      6.113952   484A      6.140986  
     485A      6.181204   486A      6.195958   487A      6.214375  
     488A      6.233459   489A      6.253160   490A      6.284737  
     491A      6.290884   492A      6.324808   493A      6.453692  
     494A      6.483848   495A      6.557980   496A      6.714293  
     497A      6.740172   498A      6.800325   499A      6.831800  
     500A      6.865350   501A      6.902146   502A      6.929229  
     503A      6.945540   504A      6.948763   505A      7.018574  
     506A      7.107656   507A      7.137698   508A      7.169054  
     509A      7.236902   510A      7.301484   511A      7.371172  
     512A      7.375556   513A      7.521068   514A      7.542560  
     515A      7.617414   516A      7.764750   517A      7.844888  
     518A      7.856156   519A      7.872295   520A      7.880867  
     521A      7.908654   522A      7.922921   523A      7.960537  
     524A      8.013842   525A      8.146876   526A      8.188593  
     527A      8.198123   528A      8.253766   529A      8.323457  
     530A      8.373800   531A      8.430458   532A      8.610122  
     533A      8.628627   534A      8.895170   535A      9.065293  
     536A      9.980455   537A     10.144316   538A     10.361769  
     539A     10.389433   540A     10.449147   541A     10.805414  
     542A     11.086917   543A     11.937167   544A     12.435388  
     545A     13.300368   546A     14.144790   547A     15.976571  
     548A     18.184169   549A     18.699021   550A     53.134576  
     551A     54.420802   552A     66.432475  

    Final Occupation by Irrep:
              A 
    DOCC [    13 ]
    NA   [    13 ]
    NB   [    13 ]

  @DF-RHF Final Energy:  -154.14557211741686

   => Energetics <=

    Nuclear Repulsion Energy =             82.2478332827092089
    One-Electron Energy =                -372.4652994355825513
    Two-Electron Energy =                 136.0718940354564666
    Total Energy =                       -154.1455721174168616

Computation Completed


Properties will be evaluated at   0.000000,   0.000000,   0.000000 [a0]

Properties computed using the SCF density matrix


 Multipole Moments:

 ------------------------------------------------------------------------------------
     Multipole            Electronic (a.u.)      Nuclear  (a.u.)        Total (a.u.)
 ------------------------------------------------------------------------------------

 L = 1.  Multiply by 2.5417464519 to convert [e a0] to [Debye]
 Dipole X            :        -97.5370730           97.0971632           -0.4399098
 Dipole Y            :         -2.7496602            2.3252154           -0.4244448
 Dipole Z            :         -4.0568257            3.8108935           -0.2459322
 Magnitude           :                                                    0.6589056

 ------------------------------------------------------------------------------------

*** tstop() called on Moses-MBP.lan at Thu Feb 27 17:47:13 2025
Module time:
	user time   =      71.15 seconds =       1.19 minutes
	system time =       5.90 seconds =       0.10 minutes
	total time  =         10 seconds =       0.17 minutes
Total time:
	user time   =     163.74 seconds =       2.73 minutes
	system time =      14.05 seconds =       0.23 minutes
	total time  =         23 seconds =       0.38 minutes

*** tstart() called on Moses-MBP.lan
*** at Thu Feb 27 17:47:13 2025


  //>>>>>>>>>>>>>>>>>>>>>>>>>>>>>>>>>>>//
  //               DFMP2               //
  //<<<<<<<<<<<<<<<<<<<<<<<<<<<<<<<<<<<//

   => Loading Basis Set <=

    Name: (AUG-CC-PVTZ AUX)
    Role: RIFIT
    Keyword: DF_BASIS_MP2
    atoms 1-2, 10-11 entry C          line   148 file /Users/moseschung/miniconda3/envs/psi4/share/psi4/basis/aug-cc-pvtz-ri.gbs 
    atoms 3, 12      entry O          line   264 file /Users/moseschung/miniconda3/envs/psi4/share/psi4/basis/aug-cc-pvtz-ri.gbs 
    atoms 4-9, 13-18 entry H          line    30 file /Users/moseschung/miniconda3/envs/psi4/share/psi4/basis/aug-cc-pvtz-ri.gbs 

	 --------------------------------------------------------
	                          DF-MP2                         
	      2nd-Order Density-Fitted Moller-Plesset Theory     
	              RMP2 Wavefunction,  10 Threads             
	                                                         
	        Rob Parrish, Justin Turney, Andy Simmonett,      
	           Ed Hohenstein, and C. David Sherrill          
	 --------------------------------------------------------

   => Auxiliary Basis Set <=

  Basis Set: (AUG-CC-PVTZ AUX)
    Blend: AUG-CC-PVTZ-RI
    Number of shells: 336
    Number of basis functions: 1188
    Number of Cartesian functions: 1476
    Spherical Harmonics?: true
    Max angular momentum: 4

	 --------------------------------------------------------
	                 NBF =   552, NAUX =  1188
	 --------------------------------------------------------
	   CLASS    FOCC     OCC    AOCC    AVIR     VIR    FVIR
	   PAIRS       0      13      13     539     539       0
	 --------------------------------------------------------

	-----------------------------------------------------------
	 ==================> DF-MP2 Energies <==================== 
	-----------------------------------------------------------
	 Reference Energy          =    -154.1455721174168616 [Eh]
	 Singles Energy            =      -0.0000000000000000 [Eh]
	 Same-Spin Energy          =      -0.1481288725877160 [Eh]
	 Opposite-Spin Energy      =      -0.5182003811825527 [Eh]
	 Correlation Energy        =      -0.6663292537702687 [Eh]
	 Total Energy              =    -154.8119013711871332 [Eh]
	-----------------------------------------------------------
	 ================> DF-SCS-MP2 Energies <================== 
	-----------------------------------------------------------
	 SCS Same-Spin Scale       =       0.3333333333333333 [-]
	 SCS Opposite-Spin Scale   =       1.2000000000000000 [-]
	 SCS Same-Spin Energy      =      -0.0493762908625720 [Eh]
	 SCS Opposite-Spin Energy  =      -0.6218404574190632 [Eh]
	 SCS Correlation Energy    =      -0.6712167482816352 [Eh]
	 SCS Total Energy          =    -154.8167888656984985 [Eh]
	-----------------------------------------------------------


*** tstop() called on Moses-MBP.lan at Thu Feb 27 17:47:16 2025
Module time:
	user time   =      20.58 seconds =       0.34 minutes
	system time =       1.95 seconds =       0.03 minutes
	total time  =          3 seconds =       0.05 minutes
Total time:
	user time   =     184.32 seconds =       3.07 minutes
	system time =      16.00 seconds =       0.27 minutes
	total time  =         26 seconds =       0.43 minutes

    Psi4 stopped on: Thursday, 27 February 2025 05:47PM
    Psi4 wall time for execution: 0:00:12.70


    -----------------------------------------------------------------------
          Psi4: An Open-Source Ab Initio Electronic Structure Package
                               Psi4 1.9.1 release

                         Git: Rev {} zzzzzzz 


    D. G. A. Smith, L. A. Burns, A. C. Simmonett, R. M. Parrish,
    M. C. Schieber, R. Galvelis, P. Kraus, H. Kruse, R. Di Remigio,
    A. Alenaizan, A. M. James, S. Lehtola, J. P. Misiewicz, M. Scheurer,
    R. A. Shaw, J. B. Schriber, Y. Xie, Z. L. Glick, D. A. Sirianni,
    J. S. O'Brien, J. M. Waldrop, A. Kumar, E. G. Hohenstein,
    B. P. Pritchard, B. R. Brooks, H. F. Schaefer III, A. Yu. Sokolov,
    K. Patkowski, A. E. DePrince III, U. Bozkaya, R. A. King,
    F. A. Evangelista, J. M. Turney, T. D. Crawford, C. D. Sherrill,
    J. Chem. Phys. 152(18) 184108 (2020). https://doi.org/10.1063/5.0006002

                            Additional Code Authors
    E. T. Seidl, C. L. Janssen, E. F. Valeev, M. L. Leininger,
    J. F. Gonthier, R. M. Richard, H. R. McAlexander, M. Saitow, X. Wang,
    P. Verma, M. H. Lechner, A. Jiang, S. Behnle, A. G. Heide,
    M. F. Herbst, and D. L. Poole

             Previous Authors, Complete List of Code Contributors,
                       and Citations for Specific Modules
    https://github.com/psi4/psi4/blob/master/codemeta.json
    https://github.com/psi4/psi4/graphs/contributors
    http://psicode.org/psi4manual/master/introduction.html#citing-psifour

    -----------------------------------------------------------------------


    Psi4 started on: Thursday, 27 February 2025 05:46PM

    Process ID: 32166
    Host:       Moses-MBP.lan
    PSIDATADIR: /Users/moseschung/miniconda3/envs/psi4/share/psi4
    Memory:     9.3 GiB
    Threads:    10
    
  ==> Input QCSchema <==

--------------------------------------------------------------------------
{'driver': 'energy',
 'extras': {'psiapi': True, 'wfn_qcvars_only': True},
 'id': None,
 'keywords': {'SCF_TYPE': 'DF', 'function_kwargs': {}},
 'model': {'basis': 'aug-cc-pvtz', 'method': 'mp2'},
 'molecule': {'atom_labels': ['', '', '', '', '', '', '', '', '', '', '', '', '', '', '', '', '', ''],
              'atomic_numbers': [6, 6, 8, 1, 1, 1, 1, 1, 1, 6, 6, 8, 1, 1, 1, 1, 1, 1],
              'extras': {},
              'fix_com': True,
              'fix_orientation': True,
              'fix_symmetry': 'c1',
              'fragment_charges': [0.0, 0.0],
              'fragment_multiplicities': [1, 1],
              'fragments': [[0, 1, 2, 3, 4, 5, 6, 7, 8], [9, 10, 11, 12, 13, 14, 15, 16, 17]],
              'geometry': [2.7346472425896544, 0.9542682296553177, 2.062836376906518, 3.0900763808963894,
                           -0.5846718145860247, -0.2946782228255173, 5.493656834388711, -0.02233467307678607,
                           -1.3057818554301046, 5.745101902916003, -1.0018420848637184, -2.8089002512372683,
                           0.8922436387655408, 0.5565791460049686, 2.8993727792196875, 2.85164774592125,
                           2.9698160999983787, 1.6316972511094399, 4.207152075164401, 0.5142247143550824,
                           3.4389859640702958, 1.5850172363583808, -0.14491931710910994, -1.6623504985904913,
                           2.9184042110291735, -2.6075442633913606, 0.14939418857419406, -3.8322360810519442,
                           2.202485247851726, -0.5331729982150479, -4.27568677255638, -0.5807355150666961,
                           -0.8818331375403937, -3.012300922750922, -1.8713995614931382, 1.0812899506302165,
                           -3.3233044895742694, -3.6496072791093237, 0.9233749869563329, -4.826403988120179,
                           3.290134126894108, -1.9751757613987801, -1.81962673483397, 2.642439946024065,
                           -0.6586508129454478, -4.501034723291101, 2.808407032718524, 1.32188043229288,
                           -3.5686514118947104, -1.1874018520269245, -2.74065657166861, -6.312193595356894,
                           -0.9884798314306062, -0.8419504676626063],
              'mass_numbers': [12, 12, 16, 1, 1, 1, 1, 1, 1, 12, 12, 16, 1, 1, 1, 1, 1, 1],
              'masses': [12.0, 12.0, 15.99491461957, 1.00782503223, 1.00782503223, 1.00782503223, 1.00782503223,
                         1.00782503223, 1.00782503223, 12.0, 12.0, 15.99491461957, 1.00782503223, 1.00782503223,
                         1.00782503223, 1.00782503223, 1.00782503223, 1.00782503223],
              'molecular_charge': 0.0,
              'molecular_multiplicity': 1,
              'name': 'dimer',
              'provenance': {'creator': 'QCElemental',
                             'routine': 'qcelemental.molparse.from_string',
                             'version': '0.29.0'},
              'real': [True, True, True, True, True, True, True, True, True, True, True, True, True, True, True, True,
                       True, True],
              'schema_name': 'qcschema_molecule',
              'schema_version': 2,
              'symbols': ['C', 'C', 'O', 'H', 'H', 'H', 'H', 'H', 'H', 'C', 'C', 'O', 'H', 'H', 'H', 'H', 'H', 'H'],
              'validated': True},
 'protocols': {'stdout': True},
 'provenance': {'creator': 'QCElemental', 'routine': 'qcelemental.models.results', 'version': '0.29.0'},
 'schema_name': 'qcschema_input',
 'schema_version': 1}
--------------------------------------------------------------------------

Scratch directory: /tmp/
   => Libint2 <=

    Primary   basis highest AM E, G, H:  6, 6, 3
    Auxiliary basis highest AM E, G, H:  7, 7, 4
    Onebody   basis highest AM E, G, H:  -, -, -
    Solid Harmonics ordering:            Gaussian

*** tstart() called on Moses-MBP.lan
*** at Thu Feb 27 17:47:16 2025

   => Loading Basis Set <=

    Name: AUG-CC-PVTZ
    Role: ORBITAL
    Keyword: BASIS
    atoms 1-2, 10-11 entry C          line   239 file /Users/moseschung/miniconda3/envs/psi4/share/psi4/basis/aug-cc-pvtz.gbs 
    atoms 3, 12      entry O          line   331 file /Users/moseschung/miniconda3/envs/psi4/share/psi4/basis/aug-cc-pvtz.gbs 
    atoms 4-9, 13-18 entry H          line    40 file /Users/moseschung/miniconda3/envs/psi4/share/psi4/basis/aug-cc-pvtz.gbs 


         ---------------------------------------------------------
                                   SCF
               by Justin Turney, Rob Parrish, Andy Simmonett
                          and Daniel G. A. Smith
                              RHF Reference
                       10 Threads,   9536 MiB Core
         ---------------------------------------------------------

  ==> Geometry <==

    Molecular point group: c1
    Full point group: C1

    Geometry (in Bohr), charge = 0, multiplicity = 1:

       Center              X                  Y                   Z               Mass       
    ------------   -----------------  -----------------  -----------------  -----------------
         C            2.734647242590     0.954268229655     2.062836376907    12.000000000000
         C            3.090076380896    -0.584671814586    -0.294678222826    12.000000000000
         O            5.493656834389    -0.022334673077    -1.305781855430    15.994914619570
         H            5.745101902916    -1.001842084864    -2.808900251237     1.007825032230
         H            0.892243638766     0.556579146005     2.899372779220     1.007825032230
         H            2.851647745921     2.969816099998     1.631697251109     1.007825032230
         H            4.207152075164     0.514224714355     3.438985964070     1.007825032230
         H            1.585017236358    -0.144919317109    -1.662350498590     1.007825032230
         H            2.918404211029    -2.607544263391     0.149394188574     1.007825032230
         C           -3.832236081052     2.202485247852    -0.533172998215    12.000000000000
         C           -4.275686772556    -0.580735515067    -0.881833137540    12.000000000000
         O           -3.012300922751    -1.871399561493     1.081289950630    15.994914619570
         H           -3.323304489574    -3.649607279109     0.923374986956     1.007825032230
         H           -4.826403988120     3.290134126894    -1.975175761399     1.007825032230
         H           -1.819626734834     2.642439946024    -0.658650812945     1.007825032230
         H           -4.501034723291     2.808407032719     1.321880432293     1.007825032230
         H           -3.568651411895    -1.187401852027    -2.740656571669     1.007825032230
         H           -6.312193595357    -0.988479831431    -0.841950467663     1.007825032230

  Running in c1 symmetry.

  Rotational constants: A =      0.17109  B =      0.03837  C =      0.03752 [cm^-1]
  Rotational constants: A =   5129.16698  B =   1150.19187  C =   1124.84031 [MHz]
  Nuclear repulsion =  251.296819080370227

  Charge       = 0
  Multiplicity = 1
  Electrons    = 52
  Nalpha       = 26
  Nbeta        = 26

  ==> Algorithm <==

  SCF Algorithm Type is DF.
  DIIS enabled.
  MOM disabled.
  Fractional occupation disabled.
  Guess Type is SAD.
  Energy threshold   = 1.00e-08
  Density threshold  = 1.00e-08
  Integral threshold = 1.00e-12

  ==> Primary Basis <==

  Basis Set: AUG-CC-PVTZ
    Blend: AUG-CC-PVTZ
    Number of shells: 192
    Number of basis functions: 552
    Number of Cartesian functions: 630
    Spherical Harmonics?: true
    Max angular momentum: 3

   => Loading Basis Set <=

    Name: (AUG-CC-PVTZ AUX)
    Role: JKFIT
    Keyword: DF_BASIS_SCF
    atoms 1-2, 10-11 entry C          line   162 file /Users/moseschung/miniconda3/envs/psi4/share/psi4/basis/aug-cc-pvtz-jkfit.gbs 
    atoms 3, 12      entry O          line   286 file /Users/moseschung/miniconda3/envs/psi4/share/psi4/basis/aug-cc-pvtz-jkfit.gbs 
    atoms 4-9, 13-18 entry H          line    70 file /Users/moseschung/miniconda3/envs/psi4/share/psi4/basis/aug-cc-pvtz-jkfit.gbs 

  ==> Integral Setup <==

  DFHelper Memory: AOs need 2.613 GiB; user supplied 6.985 GiB. 
  Using in-core AOs.

  ==> MemDFJK: Density-Fitted J/K Matrices <==

    J tasked:                   Yes
    K tasked:                   Yes
    wK tasked:                   No
    OpenMP threads:              10
    Memory [MiB]:              7152
    Algorithm:                 Core
    Schwarz Cutoff:           1E-12
    Mask sparsity (%):       5.6612
    Fitting Condition:        1E-10

   => Auxiliary Basis Set <=

  Basis Set: (AUG-CC-PVTZ AUX)
    Blend: AUG-CC-PVTZ-JKFIT
    Number of shells: 348
    Number of basis functions: 1176
    Number of Cartesian functions: 1446
    Spherical Harmonics?: true
    Max angular momentum: 4

  Minimum eigenvalue in the overlap matrix is 8.2229459282E-06.
  Reciprocal condition number of the overlap matrix is 4.3724738378E-07.
    Using symmetric orthogonalization.

  ==> Pre-Iterations <==

  SCF Guess: Superposition of Atomic Densities via on-the-fly atomic UHF (no occupation information).

   -------------------------
    Irrep   Nso     Nmo    
   -------------------------
     A        552     552 
   -------------------------
    Total     552     552
   -------------------------

  ==> Iterations <==

                           Total Energy        Delta E     RMS |[F,P]|

   @DF-RHF iter SAD:  -307.04232323730548   -3.07042e+02   0.00000e+00 
   @DF-RHF iter   1:  -307.99807910404303   -9.55756e-01   1.34625e-03 ADIIS/DIIS
   @DF-RHF iter   2:  -308.22255949785875   -2.24480e-01   7.36600e-04 ADIIS/DIIS
   @DF-RHF iter   3:  -308.28550291553506   -6.29434e-02   1.19540e-04 ADIIS/DIIS
   @DF-RHF iter   4:  -308.28872258285060   -3.21967e-03   4.46283e-05 DIIS
   @DF-RHF iter   5:  -308.28906876529260   -3.46182e-04   8.19213e-06 DIIS
   @DF-RHF iter   6:  -308.28908813232192   -1.93670e-05   1.82640e-06 DIIS
   @DF-RHF iter   7:  -308.28908925178786   -1.11947e-06   5.57787e-07 DIIS
   @DF-RHF iter   8:  -308.28908934012497   -8.83371e-08   1.48943e-07 DIIS
   @DF-RHF iter   9:  -308.28908934841388   -8.28891e-09   3.71475e-08 DIIS
   @DF-RHF iter  10:  -308.28908934896469   -5.50813e-10   9.49237e-09 DIIS
  Energy and wave function converged.


  ==> Post-Iterations <==

    Orbital Energies [Eh]
    ---------------------

    Doubly Occupied:                                                      

       1A    -20.562164     2A    -20.548006     3A    -11.279333  
       4A    -11.263235     5A    -11.214597     6A    -11.196461  
       7A     -1.369099     8A     -1.354007     9A     -1.019397  
      10A     -1.002547    11A     -0.838739    12A     -0.821546  
      13A     -0.710633    14A     -0.694949    15A     -0.652625  
      16A     -0.634210    17A     -0.581652    18A     -0.564506  
      19A     -0.539113    20A     -0.530008    21A     -0.520732  
      22A     -0.512897    23A     -0.491992    24A     -0.478724  
      25A     -0.445998    26A     -0.430609  

    Virtual:                                                              

      27A      0.024449    28A      0.034743    29A      0.035812  
      30A      0.040629    31A      0.051970    32A      0.055144  
      33A      0.056039    34A      0.060680    35A      0.066956  
      36A      0.080866    37A      0.082222    38A      0.091321  
      39A      0.105721    40A      0.115295    41A      0.118258  
      42A      0.123341    43A      0.127896    44A      0.132425  
      45A      0.139441    46A      0.147839    47A      0.148686  
      48A      0.159028    49A      0.163339    50A      0.166535  
      51A      0.169621    52A      0.181995    53A      0.184287  
      54A      0.189023    55A      0.196928    56A      0.207234  
      57A      0.215639    58A      0.217466    59A      0.236184  
      60A      0.245008    61A      0.248658    62A      0.252215  
      63A      0.272933    64A      0.283354    65A      0.287228  
      66A      0.288257    67A      0.292976    68A      0.298697  
      69A      0.307167    70A      0.308826    71A      0.313862  
      72A      0.318365    73A      0.323234    74A      0.333382  
      75A      0.337871    76A      0.343842    77A      0.353496  
      78A      0.358890    79A      0.360255    80A      0.363024  
      81A      0.366666    82A      0.377857    83A      0.380723  
      84A      0.383844    85A      0.396465    86A      0.399543  
      87A      0.403125    88A      0.408423    89A      0.413023  
      90A      0.420327    91A      0.423288    92A      0.425777  
      93A      0.438511    94A      0.440533    95A      0.443621  
      96A      0.447828    97A      0.460046    98A      0.467278  
      99A      0.469407   100A      0.476403   101A      0.479491  
     102A      0.482463   103A      0.484744   104A      0.488699  
     105A      0.491273   106A      0.503293   107A      0.506005  
     108A      0.511266   109A      0.516041   110A      0.520367  
     111A      0.534970   112A      0.536883   113A      0.550134  
     114A      0.554016   115A      0.560149   116A      0.561777  
     117A      0.568998   118A      0.573271   119A      0.575249  
     120A      0.580776   121A      0.588485   122A      0.602383  
     123A      0.606119   124A      0.619131   125A      0.633856  
     126A      0.636239   127A      0.641805   128A      0.649563  
     129A      0.651966   130A      0.667705   131A      0.673379  
     132A      0.694353   133A      0.701877   134A      0.707591  
     135A      0.733622   136A      0.740381   137A      0.747283  
     138A      0.758271   139A      0.779343   140A      0.788524  
     141A      0.800336   142A      0.802610   143A      0.808360  
     144A      0.820774   145A      0.834435   146A      0.843029  
     147A      0.850480   148A      0.860494   149A      0.863054  
     150A      0.866020   151A      0.873309   152A      0.881101  
     153A      0.883791   154A      0.899060   155A      0.901804  
     156A      0.909997   157A      0.913180   158A      0.922775  
     159A      0.927627   160A      0.936885   161A      0.940063  
     162A      0.946742   163A      0.952228   164A      0.962370  
     165A      0.973895   166A      0.978383   167A      0.984895  
     168A      0.993997   169A      0.997856   170A      1.001872  
     171A      1.010241   172A      1.023424   173A      1.024146  
     174A      1.030522   175A      1.035265   176A      1.039581  
     177A      1.050163   178A      1.055797   179A      1.063322  
     180A      1.069346   181A      1.074388   182A      1.078214  
     183A      1.082840   184A      1.101443   185A      1.103299  
     186A      1.117329   187A      1.122211   188A      1.127836  
     189A      1.132697   190A      1.135102   191A      1.148591  
     192A      1.152709   193A      1.159485   194A      1.160537  
     195A      1.173402   196A      1.178722   197A      1.186409  
     198A      1.196627   199A      1.204905   200A      1.209615  
     201A      1.224718   202A      1.231690   203A      1.238718  
     204A      1.250111   205A      1.258794   206A      1.269647  
     207A      1.271068   208A      1.280075   209A      1.294184  
     210A      1.300760   211A      1.307019   212A      1.316368  
     213A      1.325000   214A      1.329028   215A      1.334753  
     216A      1.349821   217A      1.359885   218A      1.365861  
     219A      1.369576   220A      1.387373   221A      1.399359  
     222A      1.414762   223A      1.420208   224A      1.424069  
     225A      1.431406   226A      1.450647   227A      1.459957  
     228A      1.464687   229A      1.484968   230A      1.493341  
     231A      1.500413   232A      1.510088   233A      1.517790  
     234A      1.529732   235A      1.541920   236A      1.547937  
     237A      1.557470   238A      1.567951   239A      1.583691  
     240A      1.591222   241A      1.610796   242A      1.620142  
     243A      1.641138   244A      1.651407   245A      1.663623  
     246A      1.669816   247A      1.675623   248A      1.689249  
     249A      1.690963   250A      1.696245   251A      1.702018  
     252A      1.713060   253A      1.718785   254A      1.719211  
     255A      1.734896   256A      1.740318   257A      1.749108  
     258A      1.754393   259A      1.759549   260A      1.764952  
     261A      1.775062   262A      1.790204   263A      1.798254  
     264A      1.801553   265A      1.816398   266A      1.826245  
     267A      1.837395   268A      1.849887   269A      1.855630  
     270A      1.865871   271A      1.886555   272A      1.893753  
     273A      1.904716   274A      1.921773   275A      1.926388  
     276A      1.949919   277A      1.958523   278A      1.974567  
     279A      1.986857   280A      1.996928   281A      2.009139  
     282A      2.016017   283A      2.020624   284A      2.026729  
     285A      2.047721   286A      2.062096   287A      2.073527  
     288A      2.090135   289A      2.100934   290A      2.108779  
     291A      2.116836   292A      2.118337   293A      2.124259  
     294A      2.139620   295A      2.149460   296A      2.174835  
     297A      2.186241   298A      2.198908   299A      2.211926  
     300A      2.226979   301A      2.235423   302A      2.259100  
     303A      2.268257   304A      2.273954   305A      2.302974  
     306A      2.309784   307A      2.330780   308A      2.336760  
     309A      2.366271   310A      2.392286   311A      2.401536  
     312A      2.408342   313A      2.445359   314A      2.457086  
     315A      2.477341   316A      2.500081   317A      2.503233  
     318A      2.517346   319A      2.528170   320A      2.577750  
     321A      2.594372   322A      2.610091   323A      2.619445  
     324A      2.643432   325A      2.690111   326A      2.691266  
     327A      2.728785   328A      2.773079   329A      2.798673  
     330A      2.841667   331A      2.888868   332A      2.907473  
     333A      2.920877   334A      2.928434   335A      2.951510  
     336A      2.957864   337A      2.975112   338A      2.995379  
     339A      3.016977   340A      3.017520   341A      3.025122  
     342A      3.049781   343A      3.100135   344A      3.104250  
     345A      3.150951   346A      3.169945   347A      3.243711  
     348A      3.257466   349A      3.294073   350A      3.366623  
     351A      3.415727   352A      3.416176   353A      3.471212  
     354A      3.478029   355A      3.487903   356A      3.499897  
     357A      3.507832   358A      3.526024   359A      3.533668  
     360A      3.561256   361A      3.604044   362A      3.626083  
     363A      3.632592   364A      3.640432   365A      3.650684  
     366A      3.672030   367A      3.684465   368A      3.697377  
     369A      3.717091   370A      3.724865   371A      3.752157  
     372A      3.759929   373A      3.770701   374A      3.801233  
     375A      3.815931   376A      3.827971   377A      3.833548  
     378A      3.849100   379A      3.855785   380A      3.869166  
     381A      3.888793   382A      3.913311   383A      3.932306  
     384A      3.947991   385A      3.951116   386A      3.977953  
     387A      3.989049   388A      4.009903   389A      4.013183  
     390A      4.018685   391A      4.035076   392A      4.043968  
     393A      4.060644   394A      4.067850   395A      4.076510  
     396A      4.087080   397A      4.092330   398A      4.106254  
     399A      4.122104   400A      4.132805   401A      4.145077  
     402A      4.154917   403A      4.190292   404A      4.193174  
     405A      4.206861   406A      4.218323   407A      4.224926  
     408A      4.235184   409A      4.252628   410A      4.260812  
     411A      4.300108   412A      4.306556   413A      4.334001  
     414A      4.350650   415A      4.361997   416A      4.372696  
     417A      4.377103   418A      4.401543   419A      4.410096  
     420A      4.425380   421A      4.484569   422A      4.507295  
     423A      4.516467   424A      4.528218   425A      4.546009  
     426A      4.564656   427A      4.578045   428A      4.588482  
     429A      4.602854   430A      4.613804   431A      4.633097  
     432A      4.635343   433A      4.651208   434A      4.666262  
     435A      4.700146   436A      4.706433   437A      4.726328  
     438A      4.747537   439A      4.778223   440A      4.784129  
     441A      4.799504   442A      4.826925   443A      4.837298  
     444A      4.864833   445A      4.893198   446A      4.900196  
     447A      4.908458   448A      4.918788   449A      4.940185  
     450A      4.958337   451A      4.965183   452A      4.995819  
     453A      5.014680   454A      5.030709   455A      5.059725  
     456A      5.071116   457A      5.083079   458A      5.096811  
     459A      5.125765   460A      5.129714   461A      5.147161  
     462A      5.161824   463A      5.176149   464A      5.189541  
     465A      5.198418   466A      5.224330   467A      5.233559  
     468A      5.253794   469A      5.264265   470A      5.301215  
     471A      5.333795   472A      5.347162   473A      5.360671  
     474A      5.376323   475A      5.388603   476A      5.402685  
     477A      5.413320   478A      5.462461   479A      5.472158  
     480A      5.492982   481A      5.504200   482A      5.530846  
     483A      5.553113   484A      5.563128   485A      5.584547  
     486A      5.612673   487A      5.623369   488A      5.633119  
     489A      5.669373   490A      5.674907   491A      5.751699  
     492A      5.757234   493A      5.783844   494A      5.788931  
     495A      5.828061   496A      5.852311   497A      5.857420  
     498A      5.874616   499A      6.006282   500A      6.038000  
     501A      6.049129   502A      6.089030   503A      6.106388  
     504A      6.140182   505A      6.183218   506A      6.186439  
     507A      6.205947   508A      6.232519   509A      6.262616  
     510A      6.298944   511A      6.321353   512A      6.348725  
     513A      6.417079   514A      6.476509   515A      6.721255  
     516A      6.726178   517A      6.741948   518A      6.764161  
     519A      6.842285   520A      6.867301   521A      6.878383  
     522A      6.920021   523A      6.948668   524A      6.954845  
     525A      6.994415   526A      7.003615   527A      7.140276  
     528A      7.174727   529A      7.361356   530A      7.377388  
     531A      7.383425   532A      7.404343   533A      7.526863  
     534A      7.543589   535A      7.555162   536A      7.561962  
     537A      7.627888   538A      7.669685   539A      7.850813  
     540A      7.866643   541A      7.958704   542A      7.975182  
     543A      8.259824   544A      8.294221   545A      8.628676  
     546A      8.663878   547A     15.979705   548A     16.156357  
     549A     18.040974   550A     18.208372   551A     18.525297  
     552A     18.741822  

    Final Occupation by Irrep:
              A 
    DOCC [    26 ]
    NA   [    26 ]
    NB   [    26 ]

  @DF-RHF Final Energy:  -308.28908934896469

   => Energetics <=

    Nuclear Repulsion Energy =            251.2968190803702271
    One-Electron Energy =                -918.6562541057818407
    Two-Electron Energy =                 359.0703456764468910
    Total Energy =                       -308.2890893489646942

Computation Completed


Properties will be evaluated at   0.000000,   0.000000,   0.000000 [a0]

Properties computed using the SCF density matrix


 Multipole Moments:

 ------------------------------------------------------------------------------------
     Multipole            Electronic (a.u.)      Nuclear  (a.u.)        Total (a.u.)
 ------------------------------------------------------------------------------------

 L = 1.  Multiply by 2.5417464519 to convert [e a0] to [Debye]
 Dipole X            :         -0.9307578            0.0000038           -0.9307540
 Dipole Y            :         -0.7173202            0.0000094           -0.7173107
 Dipole Z            :         -0.6720774           -0.0000019           -0.6720793
 Magnitude           :                                                    1.3537090

 ------------------------------------------------------------------------------------

*** tstop() called on Moses-MBP.lan at Thu Feb 27 17:47:27 2025
Module time:
	user time   =      85.61 seconds =       1.43 minutes
	system time =       7.25 seconds =       0.12 minutes
	total time  =         11 seconds =       0.18 minutes
Total time:
	user time   =     270.16 seconds =       4.50 minutes
	system time =      23.35 seconds =       0.39 minutes
	total time  =         37 seconds =       0.62 minutes

*** tstart() called on Moses-MBP.lan
*** at Thu Feb 27 17:47:27 2025


  //>>>>>>>>>>>>>>>>>>>>>>>>>>>>>>>>>>>//
  //               DFMP2               //
  //<<<<<<<<<<<<<<<<<<<<<<<<<<<<<<<<<<<//

   => Loading Basis Set <=

    Name: (AUG-CC-PVTZ AUX)
    Role: RIFIT
    Keyword: DF_BASIS_MP2
    atoms 1-2, 10-11 entry C          line   148 file /Users/moseschung/miniconda3/envs/psi4/share/psi4/basis/aug-cc-pvtz-ri.gbs 
    atoms 3, 12      entry O          line   264 file /Users/moseschung/miniconda3/envs/psi4/share/psi4/basis/aug-cc-pvtz-ri.gbs 
    atoms 4-9, 13-18 entry H          line    30 file /Users/moseschung/miniconda3/envs/psi4/share/psi4/basis/aug-cc-pvtz-ri.gbs 

	 --------------------------------------------------------
	                          DF-MP2                         
	      2nd-Order Density-Fitted Moller-Plesset Theory     
	              RMP2 Wavefunction,  10 Threads             
	                                                         
	        Rob Parrish, Justin Turney, Andy Simmonett,      
	           Ed Hohenstein, and C. David Sherrill          
	 --------------------------------------------------------

   => Auxiliary Basis Set <=

  Basis Set: (AUG-CC-PVTZ AUX)
    Blend: AUG-CC-PVTZ-RI
    Number of shells: 336
    Number of basis functions: 1188
    Number of Cartesian functions: 1476
    Spherical Harmonics?: true
    Max angular momentum: 4

	 --------------------------------------------------------
	                 NBF =   552, NAUX =  1188
	 --------------------------------------------------------
	   CLASS    FOCC     OCC    AOCC    AVIR     VIR    FVIR
	   PAIRS       0      26      26     526     526       0
	 --------------------------------------------------------

	-----------------------------------------------------------
	 ==================> DF-MP2 Energies <==================== 
	-----------------------------------------------------------
	 Reference Energy          =    -308.2890893489646942 [Eh]
	 Singles Energy            =      -0.0000000000000000 [Eh]
	 Same-Spin Energy          =      -0.2987235045181367 [Eh]
	 Opposite-Spin Energy      =      -1.0388786129068694 [Eh]
	 Correlation Energy        =      -1.3376021174250061 [Eh]
	 Total Energy              =    -309.6266914663896728 [Eh]
	-----------------------------------------------------------
	 ================> DF-SCS-MP2 Energies <================== 
	-----------------------------------------------------------
	 SCS Same-Spin Scale       =       0.3333333333333333 [-]
	 SCS Opposite-Spin Scale   =       1.2000000000000000 [-]
	 SCS Same-Spin Energy      =      -0.0995745015060455 [Eh]
	 SCS Opposite-Spin Energy  =      -1.2466543354882433 [Eh]
	 SCS Correlation Energy    =      -1.3462288369942890 [Eh]
	 SCS Total Energy          =    -309.6353181859589654 [Eh]
	-----------------------------------------------------------


*** tstop() called on Moses-MBP.lan at Thu Feb 27 17:47:32 2025
Module time:
	user time   =      32.98 seconds =       0.55 minutes
	system time =       2.63 seconds =       0.04 minutes
	total time  =          5 seconds =       0.08 minutes
Total time:
	user time   =     303.15 seconds =       5.05 minutes
	system time =      25.99 seconds =       0.43 minutes
	total time  =         42 seconds =       0.70 minutes

    Psi4 stopped on: Thursday, 27 February 2025 05:47PM
    Psi4 wall time for execution: 0:00:15.78


  //>>>>>>>>>>>>>>>>>>>>>>>>>>>>>>>>>>>//
  //          ManyBody Results         //
  //<<<<<<<<<<<<<<<<<<<<<<<<<<<<<<<<<<<//


   ==> N-Body: Counterpoise Corrected (CP) energies <==

        n-Body     Total Energy            Interaction Energy                          N-body Contribution to Interaction Energy
                   [Eh]                    [Eh]                  [kcal/mol]            [Eh]                  [kcal/mol]
             1  N/A                         0.000000000000        0.000000000000        0.000000000000        0.000000000000
  FULL/RTN   2  N/A                        -0.002765127221       -1.735143527331       -0.002765127221       -1.735143527331


    Psi4 stopped on: Thursday, 27 February 2025 05:47PM
    Psi4 wall time for execution: 0:00:43.15

*** Psi4 exiting successfully. Buy a developer a beer!
