
    -----------------------------------------------------------------------
          Psi4: An Open-Source Ab Initio Electronic Structure Package
                               Psi4 1.9.1 release

                         Git: Rev {} zzzzzzz 


    D. G. A. Smith, L. A. Burns, A. C. Simmonett, R. M. Parrish,
    M. C. Schieber, R. Galvelis, P. Kraus, H. Kruse, R. Di Remigio,
    A. Alenaizan, A. M. James, S. Lehtola, J. P. Misiewicz, M. Scheurer,
    R. A. Shaw, J. B. Schriber, Y. Xie, Z. L. Glick, D. A. Sirianni,
    J. S. O'Brien, J. M. Waldrop, A. Kumar, E. G. Hohenstein,
    B. P. Pritchard, B. R. Brooks, H. F. Schaefer III, A. Yu. Sokolov,
    K. Patkowski, A. E. DePrince III, U. Bozkaya, R. A. King,
    F. A. Evangelista, J. M. Turney, T. D. Crawford, C. D. Sherrill,
    J. Chem. Phys. 152(18) 184108 (2020). https://doi.org/10.1063/5.0006002

                            Additional Code Authors
    E. T. Seidl, C. L. Janssen, E. F. Valeev, M. L. Leininger,
    J. F. Gonthier, R. M. Richard, H. R. McAlexander, M. Saitow, X. Wang,
    P. Verma, M. H. Lechner, A. Jiang, S. Behnle, A. G. Heide,
    M. F. Herbst, and D. L. Poole

             Previous Authors, Complete List of Code Contributors,
                       and Citations for Specific Modules
    https://github.com/psi4/psi4/blob/master/codemeta.json
    https://github.com/psi4/psi4/graphs/contributors
    http://psicode.org/psi4manual/master/introduction.html#citing-psifour

    -----------------------------------------------------------------------


    Psi4 started on: Thursday, 27 February 2025 06:42PM

    Process ID: 32680
    Host:       Moses-MBP.lan
    PSIDATADIR: /Users/moseschung/miniconda3/envs/psi4/share/psi4
    Memory:     500.0 MiB
    Threads:    10
    
  ==> Input File <==

--------------------------------------------------------------------------
MEMORY 10 GB

molecule dimer {
0 1
C   -1.340230  -1.238701  -0.247369
C   -1.813966  -0.055383   0.560776
O   -2.628598   0.815222  -0.185925
H   -2.118850   1.148555  -0.929233
H   -0.714968  -1.904102   0.354276
H   -0.756335  -0.904688  -1.113642
H   -2.186486  -1.812197  -0.629103
H   -0.954235   0.480136   0.991745
H   -2.424653  -0.391893   1.402230
--
0 1
C    1.540954   1.314974  -0.308347
C    2.019043   0.152422   0.525881
O    2.227891  -1.012069  -0.236919
H    1.390962  -1.264575  -0.637521
H    1.410523   2.212568   0.300175
H    0.575452   1.087302  -0.773428
H    2.251947   1.534796  -1.106648
H    1.315507  -0.037436   1.351327
H    2.981990   0.386431   0.986923

units ang
no_reorient
no_com
symmetry c1
}

set {
basis        aug-cc-pVTZ
scf_type     df
}

energy("mp2", bsse_type="cp")
--------------------------------------------------------------------------

  Memory set to   9.313 GiB by Python driver.

Scratch directory: /tmp/

  //>>>>>>>>>>>>>>>>>>>>>>>>>>>>>>>>>>>>>//
  // ManyBody Setup: N-Body Levels [1, 2]//
  //<<<<<<<<<<<<<<<<<<<<<<<<<<<<<<<<<<<<<//

        Number of 1-body computations:     2
        Number of 2-body computations:     1

    -----------------------------------------------------------------------
          Psi4: An Open-Source Ab Initio Electronic Structure Package
                               Psi4 1.9.1 release

                         Git: Rev {} zzzzzzz 


    D. G. A. Smith, L. A. Burns, A. C. Simmonett, R. M. Parrish,
    M. C. Schieber, R. Galvelis, P. Kraus, H. Kruse, R. Di Remigio,
    A. Alenaizan, A. M. James, S. Lehtola, J. P. Misiewicz, M. Scheurer,
    R. A. Shaw, J. B. Schriber, Y. Xie, Z. L. Glick, D. A. Sirianni,
    J. S. O'Brien, J. M. Waldrop, A. Kumar, E. G. Hohenstein,
    B. P. Pritchard, B. R. Brooks, H. F. Schaefer III, A. Yu. Sokolov,
    K. Patkowski, A. E. DePrince III, U. Bozkaya, R. A. King,
    F. A. Evangelista, J. M. Turney, T. D. Crawford, C. D. Sherrill,
    J. Chem. Phys. 152(18) 184108 (2020). https://doi.org/10.1063/5.0006002

                            Additional Code Authors
    E. T. Seidl, C. L. Janssen, E. F. Valeev, M. L. Leininger,
    J. F. Gonthier, R. M. Richard, H. R. McAlexander, M. Saitow, X. Wang,
    P. Verma, M. H. Lechner, A. Jiang, S. Behnle, A. G. Heide,
    M. F. Herbst, and D. L. Poole

             Previous Authors, Complete List of Code Contributors,
                       and Citations for Specific Modules
    https://github.com/psi4/psi4/blob/master/codemeta.json
    https://github.com/psi4/psi4/graphs/contributors
    http://psicode.org/psi4manual/master/introduction.html#citing-psifour

    -----------------------------------------------------------------------


    Psi4 started on: Thursday, 27 February 2025 06:42PM

    Process ID: 32680
    Host:       Moses-MBP.lan
    PSIDATADIR: /Users/moseschung/miniconda3/envs/psi4/share/psi4
    Memory:     9.3 GiB
    Threads:    10
    
  ==> Input QCSchema <==

--------------------------------------------------------------------------
{'driver': 'energy',
 'extras': {'psiapi': True, 'wfn_qcvars_only': True},
 'id': None,
 'keywords': {'SCF_TYPE': 'DF', 'function_kwargs': {}},
 'model': {'basis': 'aug-cc-pvtz', 'method': 'mp2'},
 'molecule': {'atom_labels': ['', '', '', '', '', '', '', '', '', '', '', '', '', '', '', '', '', ''],
              'atomic_numbers': [6, 6, 8, 1, 1, 1, 1, 1, 1, 6, 6, 8, 1, 1, 1, 1, 1, 1],
              'extras': {},
              'fix_com': True,
              'fix_orientation': True,
              'fix_symmetry': 'c1',
              'fragment_charges': [0.0, 0.0],
              'fragment_multiplicities': [1, 1],
              'fragments': [[0, 1, 2, 3, 4, 5, 6, 7, 8], [9, 10, 11, 12, 13, 14, 15, 16, 17]],
              'geometry': [-2.5326676451223444, -2.3408056413307374, -0.4674596619283775, -3.4278989408922347,
                           -0.1046587020062309, 1.0597130577297391, -4.967330313926197, 1.5405463114479816,
                           -0.3513473298757467, -4.00404620092632, 2.170454390025216, -1.7559958767375539,
                           -1.3510937084663326, -3.5982312949365016, 0.6694846128226974, -1.4292660090981464,
                           -1.7096125489881917, -2.1044783818071067, -4.131859717147785, -3.4245560153762997,
                           -1.188832374703896, -1.8032428093262507, 0.9073255429728198, 1.8741264362921737,
                           -4.5819301192697, -0.7405704404840446, 2.6498306649007306, 2.9119810319287414,
                           2.4849407220977824, -0.5826913816065449, 3.8154383055227497, 0.2880358354945331,
                           0.9937710645818882, 4.210103827372366, -1.912533230065979, -0.44771202391734316,
                           2.6285372309190715, -2.389700415100833, -1.204740089228, 2.665502163659152,
                           4.181147553951976, 0.5672485397093036, 1.087446678346958, 2.0547029956625473,
                           -1.461567097760597, 4.25556307904638, 2.9003440984481728, -2.0912616372856547,
                           2.4859479461226512, -0.07074378723263924, 2.5536379359365506, 5.635144408853989,
                           0.7302487563867939, 1.8650141769152162],
              'mass_numbers': [12, 12, 16, 1, 1, 1, 1, 1, 1, 12, 12, 16, 1, 1, 1, 1, 1, 1],
              'masses': [12.0, 12.0, 15.99491461957, 1.00782503223, 1.00782503223, 1.00782503223, 1.00782503223,
                         1.00782503223, 1.00782503223, 12.0, 12.0, 15.99491461957, 1.00782503223, 1.00782503223,
                         1.00782503223, 1.00782503223, 1.00782503223, 1.00782503223],
              'molecular_charge': 0.0,
              'molecular_multiplicity': 1,
              'name': 'dimer',
              'provenance': {'creator': 'QCElemental',
                             'routine': 'qcelemental.molparse.from_string',
                             'version': '0.29.0'},
              'real': [False, False, False, False, False, False, False, False, False, True, True, True, True, True,
                       True, True, True, True],
              'schema_name': 'qcschema_molecule',
              'schema_version': 2,
              'symbols': ['C', 'C', 'O', 'H', 'H', 'H', 'H', 'H', 'H', 'C', 'C', 'O', 'H', 'H', 'H', 'H', 'H', 'H'],
              'validated': True},
 'protocols': {'stdout': True},
 'provenance': {'creator': 'QCElemental', 'routine': 'qcelemental.models.results', 'version': '0.29.0'},
 'schema_name': 'qcschema_input',
 'schema_version': 1}
--------------------------------------------------------------------------

Scratch directory: /tmp/
   => Libint2 <=

    Primary   basis highest AM E, G, H:  6, 6, 3
    Auxiliary basis highest AM E, G, H:  7, 7, 4
    Onebody   basis highest AM E, G, H:  -, -, -
    Solid Harmonics ordering:            Gaussian

*** tstart() called on Moses-MBP.lan
*** at Thu Feb 27 18:42:36 2025

   => Loading Basis Set <=

    Name: AUG-CC-PVTZ
    Role: ORBITAL
    Keyword: BASIS
    atoms 1-2, 10-11 entry C          line   239 file /Users/moseschung/miniconda3/envs/psi4/share/psi4/basis/aug-cc-pvtz.gbs 
    atoms 3, 12      entry O          line   331 file /Users/moseschung/miniconda3/envs/psi4/share/psi4/basis/aug-cc-pvtz.gbs 
    atoms 4-9, 13-18 entry H          line    40 file /Users/moseschung/miniconda3/envs/psi4/share/psi4/basis/aug-cc-pvtz.gbs 


         ---------------------------------------------------------
                                   SCF
               by Justin Turney, Rob Parrish, Andy Simmonett
                          and Daniel G. A. Smith
                              RHF Reference
                       10 Threads,   9536 MiB Core
         ---------------------------------------------------------

  ==> Geometry <==

    Molecular point group: c1
    Full point group: C1

    Geometry (in Bohr), charge = 0, multiplicity = 1:

       Center              X                  Y                   Z               Mass       
    ------------   -----------------  -----------------  -----------------  -----------------
      Gh(C)          -2.532667645122    -2.340805641331    -0.467459661928    12.000000000000
      Gh(C)          -3.427898940892    -0.104658702006     1.059713057730    12.000000000000
      Gh(O)          -4.967330313926     1.540546311448    -0.351347329876    15.994914619570
      Gh(H)          -4.004046200926     2.170454390025    -1.755995876738     1.007825032230
      Gh(H)          -1.351093708466    -3.598231294937     0.669484612823     1.007825032230
      Gh(H)          -1.429266009098    -1.709612548988    -2.104478381807     1.007825032230
      Gh(H)          -4.131859717148    -3.424556015376    -1.188832374704     1.007825032230
      Gh(H)          -1.803242809326     0.907325542973     1.874126436292     1.007825032230
      Gh(H)          -4.581930119270    -0.740570440484     2.649830664901     1.007825032230
         C            2.911981031929     2.484940722098    -0.582691381607    12.000000000000
         C            3.815438305523     0.288035835495     0.993771064582    12.000000000000
         O            4.210103827372    -1.912533230066    -0.447712023917    15.994914619570
         H            2.628537230919    -2.389700415101    -1.204740089228     1.007825032230
         H            2.665502163659     4.181147553952     0.567248539709     1.007825032230
         H            1.087446678347     2.054702995663    -1.461567097761     1.007825032230
         H            4.255563079046     2.900344098448    -2.091261637286     1.007825032230
         H            2.485947946123    -0.070743787233     2.553637935937     1.007825032230
         H            5.635144408854     0.730248756387     1.865014176915     1.007825032230

  Running in c1 symmetry.

  Rotational constants: A =      0.15746  B =      0.04352  C =      0.03729 [cm^-1]
  Rotational constants: A =   4720.58134  B =   1304.76769  C =   1118.07547 [MHz]
  Nuclear repulsion =   82.146440860241995

  Charge       = 0
  Multiplicity = 1
  Electrons    = 26
  Nalpha       = 13
  Nbeta        = 13

  ==> Algorithm <==

  SCF Algorithm Type is DF.
  DIIS enabled.
  MOM disabled.
  Fractional occupation disabled.
  Guess Type is SAD.
  Energy threshold   = 1.00e-08
  Density threshold  = 1.00e-08
  Integral threshold = 1.00e-12

  ==> Primary Basis <==

  Basis Set: AUG-CC-PVTZ
    Blend: AUG-CC-PVTZ
    Number of shells: 192
    Number of basis functions: 552
    Number of Cartesian functions: 630
    Spherical Harmonics?: true
    Max angular momentum: 3

   => Loading Basis Set <=

    Name: (AUG-CC-PVTZ AUX)
    Role: JKFIT
    Keyword: DF_BASIS_SCF
    atoms 1-2, 10-11 entry C          line   162 file /Users/moseschung/miniconda3/envs/psi4/share/psi4/basis/aug-cc-pvtz-jkfit.gbs 
    atoms 3, 12      entry O          line   286 file /Users/moseschung/miniconda3/envs/psi4/share/psi4/basis/aug-cc-pvtz-jkfit.gbs 
    atoms 4-9, 13-18 entry H          line    70 file /Users/moseschung/miniconda3/envs/psi4/share/psi4/basis/aug-cc-pvtz-jkfit.gbs 

  ==> Integral Setup <==

  DFHelper Memory: AOs need 2.639 GiB; user supplied 6.985 GiB. 
  Using in-core AOs.

  ==> MemDFJK: Density-Fitted J/K Matrices <==

    J tasked:                   Yes
    K tasked:                   Yes
    wK tasked:                   No
    OpenMP threads:              10
    Memory [MiB]:              7152
    Algorithm:                 Core
    Schwarz Cutoff:           1E-12
    Mask sparsity (%):       4.6800
    Fitting Condition:        1E-10

   => Auxiliary Basis Set <=

  Basis Set: (AUG-CC-PVTZ AUX)
    Blend: AUG-CC-PVTZ-JKFIT
    Number of shells: 348
    Number of basis functions: 1176
    Number of Cartesian functions: 1446
    Spherical Harmonics?: true
    Max angular momentum: 4

  Minimum eigenvalue in the overlap matrix is 4.8165104445E-06.
  Reciprocal condition number of the overlap matrix is 2.4129849173E-07.
    Using symmetric orthogonalization.

  ==> Pre-Iterations <==

  SCF Guess: Superposition of Atomic Densities via on-the-fly atomic UHF (no occupation information).

   -------------------------
    Irrep   Nso     Nmo    
   -------------------------
     A        552     552 
   -------------------------
    Total     552     552
   -------------------------

  ==> Iterations <==

                           Total Energy        Delta E     RMS |[F,P]|

   @DF-RHF iter SAD:  -153.45646259907730   -1.53456e+02   0.00000e+00 
   @DF-RHF iter   1:  -154.00335395836930   -5.46891e-01   9.38155e-04 DIIS/ADIIS
   @DF-RHF iter   2:  -154.11527858886316   -1.11925e-01   4.96032e-04 DIIS/ADIIS
   @DF-RHF iter   3:  -154.14335354748977   -2.80750e-02   8.37282e-05 DIIS
   @DF-RHF iter   4:  -154.14493013119514   -1.57658e-03   3.20597e-05 DIIS
   @DF-RHF iter   5:  -154.14511553974887   -1.85409e-04   6.20403e-06 DIIS
   @DF-RHF iter   6:  -154.14512582563026   -1.02859e-05   1.42062e-06 DIIS
   @DF-RHF iter   7:  -154.14512655367847   -7.28048e-07   4.05437e-07 DIIS
   @DF-RHF iter   8:  -154.14512660814523   -5.44668e-08   1.27738e-07 DIIS
   @DF-RHF iter   9:  -154.14512661426497   -6.11973e-09   3.28024e-08 DIIS
   @DF-RHF iter  10:  -154.14512661469828   -4.33317e-10   6.36672e-09 DIIS
  Energy and wave function converged.


  ==> Post-Iterations <==

    Orbital Energies [Eh]
    ---------------------

    Doubly Occupied:                                                      

       1A    -20.555976     2A    -11.273443     3A    -11.217817  
       4A     -1.362982     5A     -1.013864     6A     -0.847815  
       7A     -0.688978     8A     -0.626421     9A     -0.609352  
      10A     -0.545512    11A     -0.526173    12A     -0.479690  
      13A     -0.443007  

    Virtual:                                                              

      14A      0.018930    15A      0.033290    16A      0.034771  
      17A      0.038977    18A      0.051882    19A      0.053569  
      20A      0.055078    21A      0.062748    22A      0.066765  
      23A      0.074877    24A      0.076972    25A      0.087138  
      26A      0.093551    27A      0.107223    28A      0.112848  
      29A      0.115988    30A      0.119223    31A      0.122182  
      32A      0.127049    33A      0.140299    34A      0.142364  
      35A      0.144853    36A      0.151547    37A      0.160508  
      38A      0.162861    39A      0.176455    40A      0.180775  
      41A      0.186970    42A      0.193658    43A      0.203031  
      44A      0.204941    45A      0.214879    46A      0.224040  
      47A      0.226664    48A      0.236281    49A      0.248289  
      50A      0.250662    51A      0.265289    52A      0.272216  
      53A      0.281521    54A      0.284232    55A      0.291962  
      56A      0.299269    57A      0.304385    58A      0.308774  
      59A      0.317211    60A      0.321546    61A      0.324893  
      62A      0.332735    63A      0.338334    64A      0.340484  
      65A      0.345917    66A      0.354802    67A      0.358394  
      68A      0.362507    69A      0.365097    70A      0.369830  
      71A      0.377462    72A      0.389479    73A      0.399301  
      74A      0.402306    75A      0.404648    76A      0.412280  
      77A      0.419180    78A      0.426009    79A      0.428970  
      80A      0.435809    81A      0.442958    82A      0.459221  
      83A      0.461947    84A      0.468791    85A      0.470565  
      86A      0.472845    87A      0.477158    88A      0.480308  
      89A      0.488389    90A      0.489775    91A      0.495995  
      92A      0.508061    93A      0.510162    94A      0.519783  
      95A      0.522062    96A      0.530056    97A      0.534935  
      98A      0.541112    99A      0.548689   100A      0.558529  
     101A      0.560951   102A      0.573925   103A      0.577064  
     104A      0.586879   105A      0.589381   106A      0.600194  
     107A      0.604549   108A      0.609297   109A      0.612305  
     110A      0.626721   111A      0.631365   112A      0.641040  
     113A      0.643005   114A      0.655625   115A      0.666126  
     116A      0.669430   117A      0.670853   118A      0.684349  
     119A      0.694926   120A      0.705309   121A      0.712855  
     122A      0.723907   123A      0.733501   124A      0.743257  
     125A      0.750874   126A      0.767088   127A      0.776808  
     128A      0.795082   129A      0.800780   130A      0.812505  
     131A      0.816659   132A      0.830816   133A      0.834348  
     134A      0.845580   135A      0.864591   136A      0.868521  
     137A      0.880396   138A      0.888120   139A      0.895211  
     140A      0.898545   141A      0.908089   142A      0.911878  
     143A      0.926605   144A      0.936982   145A      0.947739  
     146A      0.951566   147A      0.963819   148A      0.970133  
     149A      0.978949   150A      0.981363   151A      0.987092  
     152A      0.996085   153A      1.003049   154A      1.013936  
     155A      1.019631   156A      1.031828   157A      1.039413  
     158A      1.048749   159A      1.053055   160A      1.056665  
     161A      1.064376   162A      1.070577   163A      1.079486  
     164A      1.084538   165A      1.091045   166A      1.099151  
     167A      1.104127   168A      1.108004   169A      1.112034  
     170A      1.125373   171A      1.128084   172A      1.139583  
     173A      1.142214   174A      1.148808   175A      1.156546  
     176A      1.163230   177A      1.167300   178A      1.178099  
     179A      1.187479   180A      1.199040   181A      1.207130  
     182A      1.213051   183A      1.214562   184A      1.228594  
     185A      1.229840   186A      1.238150   187A      1.250772  
     188A      1.260811   189A      1.268936   190A      1.279767  
     191A      1.284291   192A      1.286838   193A      1.294932  
     194A      1.305709   195A      1.315998   196A      1.328795  
     197A      1.334167   198A      1.335065   199A      1.348423  
     200A      1.360582   201A      1.373376   202A      1.376254  
     203A      1.385926   204A      1.390492   205A      1.403870  
     206A      1.413915   207A      1.422259   208A      1.435538  
     209A      1.444148   210A      1.454558   211A      1.460644  
     212A      1.464526   213A      1.470458   214A      1.492327  
     215A      1.499089   216A      1.500850   217A      1.521545  
     218A      1.529271   219A      1.533112   220A      1.542425  
     221A      1.561115   222A      1.574804   223A      1.577002  
     224A      1.589274   225A      1.591785   226A      1.601259  
     227A      1.617012   228A      1.637712   229A      1.642140  
     230A      1.644153   231A      1.661468   232A      1.671024  
     233A      1.691493   234A      1.698436   235A      1.703853  
     236A      1.714340   237A      1.718040   238A      1.731580  
     239A      1.734885   240A      1.756365   241A      1.765385  
     242A      1.766521   243A      1.780339   244A      1.786581  
     245A      1.806128   246A      1.809823   247A      1.822921  
     248A      1.832231   249A      1.846277   250A      1.852737  
     251A      1.855194   252A      1.865617   253A      1.874164  
     254A      1.880988   255A      1.908748   256A      1.924588  
     257A      1.929067   258A      1.941074   259A      1.949037  
     260A      1.964934   261A      1.973690   262A      2.005758  
     263A      2.010815   264A      2.017434   265A      2.022700  
     266A      2.024832   267A      2.042843   268A      2.046846  
     269A      2.052441   270A      2.071412   271A      2.094177  
     272A      2.097106   273A      2.107448   274A      2.127077  
     275A      2.145567   276A      2.152436   277A      2.161158  
     278A      2.166780   279A      2.198091   280A      2.202024  
     281A      2.222125   282A      2.241466   283A      2.242462  
     284A      2.256507   285A      2.264432   286A      2.273351  
     287A      2.289208   288A      2.314795   289A      2.325383  
     290A      2.338841   291A      2.352067   292A      2.367532  
     293A      2.375868   294A      2.394157   295A      2.436006  
     296A      2.449445   297A      2.455833   298A      2.472762  
     299A      2.487479   300A      2.498536   301A      2.511178  
     302A      2.541666   303A      2.580303   304A      2.599473  
     305A      2.611475   306A      2.619707   307A      2.638661  
     308A      2.666053   309A      2.689528   310A      2.699569  
     311A      2.713793   312A      2.743361   313A      2.763673  
     314A      2.781268   315A      2.800148   316A      2.808078  
     317A      2.820394   318A      2.851266   319A      2.868607  
     320A      2.882696   321A      2.893946   322A      2.901395  
     323A      2.921605   324A      2.946024   325A      2.961912  
     326A      2.973125   327A      2.996598   328A      3.046702  
     329A      3.108103   330A      3.120347   331A      3.158136  
     332A      3.164646   333A      3.189767   334A      3.224974  
     335A      3.249619   336A      3.260109   337A      3.325852  
     338A      3.338325   339A      3.349657   340A      3.368410  
     341A      3.413893   342A      3.461521   343A      3.479457  
     344A      3.513537   345A      3.535724   346A      3.549882  
     347A      3.583761   348A      3.646190   349A      3.655958  
     350A      3.685901   351A      3.694019   352A      3.718751  
     353A      3.732765   354A      3.757641   355A      3.772534  
     356A      3.782121   357A      3.791749   358A      3.817437  
     359A      3.846247   360A      3.854164   361A      3.868154  
     362A      3.903276   363A      3.922898   364A      3.949579  
     365A      3.964474   366A      4.003924   367A      4.016632  
     368A      4.032037   369A      4.049523   370A      4.080226  
     371A      4.107025   372A      4.114967   373A      4.122479  
     374A      4.153921   375A      4.169945   376A      4.183918  
     377A      4.196974   378A      4.202540   379A      4.219583  
     380A      4.235084   381A      4.256421   382A      4.257773  
     383A      4.275303   384A      4.281023   385A      4.294512  
     386A      4.326232   387A      4.338419   388A      4.370816  
     389A      4.385305   390A      4.392141   391A      4.405424  
     392A      4.427208   393A      4.445931   394A      4.470703  
     395A      4.501322   396A      4.509271   397A      4.526796  
     398A      4.547752   399A      4.573497   400A      4.579348  
     401A      4.587086   402A      4.600234   403A      4.613047  
     404A      4.621548   405A      4.637946   406A      4.657691  
     407A      4.671981   408A      4.677117   409A      4.710836  
     410A      4.724539   411A      4.738677   412A      4.752523  
     413A      4.765843   414A      4.782469   415A      4.810503  
     416A      4.833050   417A      4.850107   418A      4.865523  
     419A      4.876520   420A      4.899964   421A      4.916206  
     422A      4.917248   423A      4.935480   424A      4.962110  
     425A      4.973635   426A      4.982743   427A      4.997224  
     428A      5.020804   429A      5.022677   430A      5.037407  
     431A      5.052925   432A      5.070457   433A      5.080134  
     434A      5.082635   435A      5.095935   436A      5.106030  
     437A      5.150501   438A      5.156031   439A      5.176154  
     440A      5.201781   441A      5.231360   442A      5.240023  
     443A      5.275526   444A      5.288906   445A      5.306544  
     446A      5.324879   447A      5.343969   448A      5.365786  
     449A      5.374258   450A      5.382621   451A      5.404878  
     452A      5.446144   453A      5.458747   454A      5.470784  
     455A      5.488627   456A      5.502009   457A      5.539773  
     458A      5.552008   459A      5.555953   460A      5.563123  
     461A      5.587891   462A      5.604844   463A      5.624290  
     464A      5.641734   465A      5.650675   466A      5.689223  
     467A      5.697692   468A      5.707611   469A      5.725627  
     470A      5.745826   471A      5.765620   472A      5.778324  
     473A      5.805374   474A      5.825001   475A      5.853244  
     476A      5.875934   477A      5.916360   478A      5.948212  
     479A      6.022180   480A      6.035992   481A      6.070263  
     482A      6.113328   483A      6.133485   484A      6.144739  
     485A      6.186901   486A      6.226063   487A      6.240937  
     488A      6.272735   489A      6.290670   490A      6.303817  
     491A      6.328109   492A      6.388422   493A      6.436580  
     494A      6.464589   495A      6.490888   496A      6.717681  
     497A      6.782828   498A      6.814944   499A      6.834045  
     500A      6.890552   501A      6.903496   502A      6.974913  
     503A      6.999710   504A      7.020936   505A      7.067542  
     506A      7.125497   507A      7.161010   508A      7.179024  
     509A      7.210794   510A      7.365038   511A      7.398258  
     512A      7.441012   513A      7.520068   514A      7.586589  
     515A      7.658480   516A      7.778052   517A      7.818598  
     518A      7.837176   519A      7.868336   520A      7.880712  
     521A      7.897315   522A      7.947056   523A      8.016354  
     524A      8.026816   525A      8.120209   526A      8.202469  
     527A      8.283919   528A      8.297394   529A      8.351311  
     530A      8.381767   531A      8.445286   532A      8.614641  
     533A      8.640491   534A      8.921921   535A      8.996978  
     536A      9.981890   537A     10.040343   538A     10.260081  
     539A     10.383702   540A     10.698970   541A     10.760805  
     542A     11.081592   543A     12.036047   544A     12.388743  
     545A     13.279650   546A     14.122110   547A     16.563375  
     548A     17.906675   549A     18.858440   550A     53.273766  
     551A     54.872051   552A     66.803597  

    Final Occupation by Irrep:
              A 
    DOCC [    13 ]
    NA   [    13 ]
    NB   [    13 ]

  @DF-RHF Final Energy:  -154.14512661469828

   => Energetics <=

    Nuclear Repulsion Energy =             82.1464408602419951
    One-Electron Energy =                -372.2010735122096889
    Two-Electron Energy =                 135.9095060372694377
    Total Energy =                       -154.1451266146982846

Computation Completed


Properties will be evaluated at   0.000000,   0.000000,   0.000000 [a0]

Properties computed using the SCF density matrix


 Multipole Moments:

 ------------------------------------------------------------------------------------
     Multipole            Electronic (a.u.)      Nuclear  (a.u.)        Total (a.u.)
 ------------------------------------------------------------------------------------

 L = 1.  Multiply by 2.5417464519 to convert [e a0] to [Debye]
 Dipole X            :        -93.3926799           92.8034882           -0.5891917
 Dipole Y            :         -8.3619744            8.7435927            0.3816183
 Dipole Z            :          0.9512744           -0.8868863            0.0643881
 Magnitude           :                                                    0.7049293

 ------------------------------------------------------------------------------------

*** tstop() called on Moses-MBP.lan at Thu Feb 27 18:42:46 2025
Module time:
	user time   =      71.18 seconds =       1.19 minutes
	system time =       5.89 seconds =       0.10 minutes
	total time  =         10 seconds =       0.17 minutes
Total time:
	user time   =      71.18 seconds =       1.19 minutes
	system time =       5.89 seconds =       0.10 minutes
	total time  =         10 seconds =       0.17 minutes

*** tstart() called on Moses-MBP.lan
*** at Thu Feb 27 18:42:46 2025


  //>>>>>>>>>>>>>>>>>>>>>>>>>>>>>>>>>>>//
  //               DFMP2               //
  //<<<<<<<<<<<<<<<<<<<<<<<<<<<<<<<<<<<//

   => Loading Basis Set <=

    Name: (AUG-CC-PVTZ AUX)
    Role: RIFIT
    Keyword: DF_BASIS_MP2
    atoms 1-2, 10-11 entry C          line   148 file /Users/moseschung/miniconda3/envs/psi4/share/psi4/basis/aug-cc-pvtz-ri.gbs 
    atoms 3, 12      entry O          line   264 file /Users/moseschung/miniconda3/envs/psi4/share/psi4/basis/aug-cc-pvtz-ri.gbs 
    atoms 4-9, 13-18 entry H          line    30 file /Users/moseschung/miniconda3/envs/psi4/share/psi4/basis/aug-cc-pvtz-ri.gbs 

	 --------------------------------------------------------
	                          DF-MP2                         
	      2nd-Order Density-Fitted Moller-Plesset Theory     
	              RMP2 Wavefunction,  10 Threads             
	                                                         
	        Rob Parrish, Justin Turney, Andy Simmonett,      
	           Ed Hohenstein, and C. David Sherrill          
	 --------------------------------------------------------

   => Auxiliary Basis Set <=

  Basis Set: (AUG-CC-PVTZ AUX)
    Blend: AUG-CC-PVTZ-RI
    Number of shells: 336
    Number of basis functions: 1188
    Number of Cartesian functions: 1476
    Spherical Harmonics?: true
    Max angular momentum: 4

	 --------------------------------------------------------
	                 NBF =   552, NAUX =  1188
	 --------------------------------------------------------
	   CLASS    FOCC     OCC    AOCC    AVIR     VIR    FVIR
	   PAIRS       0      13      13     539     539       0
	 --------------------------------------------------------

	-----------------------------------------------------------
	 ==================> DF-MP2 Energies <==================== 
	-----------------------------------------------------------
	 Reference Energy          =    -154.1451266146982846 [Eh]
	 Singles Energy            =      -0.0000000000000000 [Eh]
	 Same-Spin Energy          =      -0.1482147166783627 [Eh]
	 Opposite-Spin Energy      =      -0.5185775969954397 [Eh]
	 Correlation Energy        =      -0.6667923136738024 [Eh]
	 Total Energy              =    -154.8119189283720800 [Eh]
	-----------------------------------------------------------
	 ================> DF-SCS-MP2 Energies <================== 
	-----------------------------------------------------------
	 SCS Same-Spin Scale       =       0.3333333333333333 [-]
	 SCS Opposite-Spin Scale   =       1.2000000000000000 [-]
	 SCS Same-Spin Energy      =      -0.0494049055594542 [Eh]
	 SCS Opposite-Spin Energy  =      -0.6222931163945277 [Eh]
	 SCS Correlation Energy    =      -0.6716980219539819 [Eh]
	 SCS Total Energy          =    -154.8168246366522567 [Eh]
	-----------------------------------------------------------


*** tstop() called on Moses-MBP.lan at Thu Feb 27 18:42:49 2025
Module time:
	user time   =      20.28 seconds =       0.34 minutes
	system time =       1.69 seconds =       0.03 minutes
	total time  =          3 seconds =       0.05 minutes
Total time:
	user time   =      91.46 seconds =       1.52 minutes
	system time =       7.58 seconds =       0.13 minutes
	total time  =         13 seconds =       0.22 minutes

    Psi4 stopped on: Thursday, 27 February 2025 06:42PM
    Psi4 wall time for execution: 0:00:12.57


    -----------------------------------------------------------------------
          Psi4: An Open-Source Ab Initio Electronic Structure Package
                               Psi4 1.9.1 release

                         Git: Rev {} zzzzzzz 


    D. G. A. Smith, L. A. Burns, A. C. Simmonett, R. M. Parrish,
    M. C. Schieber, R. Galvelis, P. Kraus, H. Kruse, R. Di Remigio,
    A. Alenaizan, A. M. James, S. Lehtola, J. P. Misiewicz, M. Scheurer,
    R. A. Shaw, J. B. Schriber, Y. Xie, Z. L. Glick, D. A. Sirianni,
    J. S. O'Brien, J. M. Waldrop, A. Kumar, E. G. Hohenstein,
    B. P. Pritchard, B. R. Brooks, H. F. Schaefer III, A. Yu. Sokolov,
    K. Patkowski, A. E. DePrince III, U. Bozkaya, R. A. King,
    F. A. Evangelista, J. M. Turney, T. D. Crawford, C. D. Sherrill,
    J. Chem. Phys. 152(18) 184108 (2020). https://doi.org/10.1063/5.0006002

                            Additional Code Authors
    E. T. Seidl, C. L. Janssen, E. F. Valeev, M. L. Leininger,
    J. F. Gonthier, R. M. Richard, H. R. McAlexander, M. Saitow, X. Wang,
    P. Verma, M. H. Lechner, A. Jiang, S. Behnle, A. G. Heide,
    M. F. Herbst, and D. L. Poole

             Previous Authors, Complete List of Code Contributors,
                       and Citations for Specific Modules
    https://github.com/psi4/psi4/blob/master/codemeta.json
    https://github.com/psi4/psi4/graphs/contributors
    http://psicode.org/psi4manual/master/introduction.html#citing-psifour

    -----------------------------------------------------------------------


    Psi4 started on: Thursday, 27 February 2025 06:42PM

    Process ID: 32680
    Host:       Moses-MBP.lan
    PSIDATADIR: /Users/moseschung/miniconda3/envs/psi4/share/psi4
    Memory:     9.3 GiB
    Threads:    10
    
  ==> Input QCSchema <==

--------------------------------------------------------------------------
{'driver': 'energy',
 'extras': {'psiapi': True, 'wfn_qcvars_only': True},
 'id': None,
 'keywords': {'SCF_TYPE': 'DF', 'function_kwargs': {}},
 'model': {'basis': 'aug-cc-pvtz', 'method': 'mp2'},
 'molecule': {'atom_labels': ['', '', '', '', '', '', '', '', '', '', '', '', '', '', '', '', '', ''],
              'atomic_numbers': [6, 6, 8, 1, 1, 1, 1, 1, 1, 6, 6, 8, 1, 1, 1, 1, 1, 1],
              'extras': {},
              'fix_com': True,
              'fix_orientation': True,
              'fix_symmetry': 'c1',
              'fragment_charges': [0.0, 0.0],
              'fragment_multiplicities': [1, 1],
              'fragments': [[0, 1, 2, 3, 4, 5, 6, 7, 8], [9, 10, 11, 12, 13, 14, 15, 16, 17]],
              'geometry': [-2.5326676451223444, -2.3408056413307374, -0.4674596619283775, -3.4278989408922347,
                           -0.1046587020062309, 1.0597130577297391, -4.967330313926197, 1.5405463114479816,
                           -0.3513473298757467, -4.00404620092632, 2.170454390025216, -1.7559958767375539,
                           -1.3510937084663326, -3.5982312949365016, 0.6694846128226974, -1.4292660090981464,
                           -1.7096125489881917, -2.1044783818071067, -4.131859717147785, -3.4245560153762997,
                           -1.188832374703896, -1.8032428093262507, 0.9073255429728198, 1.8741264362921737,
                           -4.5819301192697, -0.7405704404840446, 2.6498306649007306, 2.9119810319287414,
                           2.4849407220977824, -0.5826913816065449, 3.8154383055227497, 0.2880358354945331,
                           0.9937710645818882, 4.210103827372366, -1.912533230065979, -0.44771202391734316,
                           2.6285372309190715, -2.389700415100833, -1.204740089228, 2.665502163659152,
                           4.181147553951976, 0.5672485397093036, 1.087446678346958, 2.0547029956625473,
                           -1.461567097760597, 4.25556307904638, 2.9003440984481728, -2.0912616372856547,
                           2.4859479461226512, -0.07074378723263924, 2.5536379359365506, 5.635144408853989,
                           0.7302487563867939, 1.8650141769152162],
              'mass_numbers': [12, 12, 16, 1, 1, 1, 1, 1, 1, 12, 12, 16, 1, 1, 1, 1, 1, 1],
              'masses': [12.0, 12.0, 15.99491461957, 1.00782503223, 1.00782503223, 1.00782503223, 1.00782503223,
                         1.00782503223, 1.00782503223, 12.0, 12.0, 15.99491461957, 1.00782503223, 1.00782503223,
                         1.00782503223, 1.00782503223, 1.00782503223, 1.00782503223],
              'molecular_charge': 0.0,
              'molecular_multiplicity': 1,
              'name': 'dimer',
              'provenance': {'creator': 'QCElemental',
                             'routine': 'qcelemental.molparse.from_string',
                             'version': '0.29.0'},
              'real': [True, True, True, True, True, True, True, True, True, False, False, False, False, False, False,
                       False, False, False],
              'schema_name': 'qcschema_molecule',
              'schema_version': 2,
              'symbols': ['C', 'C', 'O', 'H', 'H', 'H', 'H', 'H', 'H', 'C', 'C', 'O', 'H', 'H', 'H', 'H', 'H', 'H'],
              'validated': True},
 'protocols': {'stdout': True},
 'provenance': {'creator': 'QCElemental', 'routine': 'qcelemental.models.results', 'version': '0.29.0'},
 'schema_name': 'qcschema_input',
 'schema_version': 1}
--------------------------------------------------------------------------

Scratch directory: /tmp/
   => Libint2 <=

    Primary   basis highest AM E, G, H:  6, 6, 3
    Auxiliary basis highest AM E, G, H:  7, 7, 4
    Onebody   basis highest AM E, G, H:  -, -, -
    Solid Harmonics ordering:            Gaussian

*** tstart() called on Moses-MBP.lan
*** at Thu Feb 27 18:42:49 2025

   => Loading Basis Set <=

    Name: AUG-CC-PVTZ
    Role: ORBITAL
    Keyword: BASIS
    atoms 1-2, 10-11 entry C          line   239 file /Users/moseschung/miniconda3/envs/psi4/share/psi4/basis/aug-cc-pvtz.gbs 
    atoms 3, 12      entry O          line   331 file /Users/moseschung/miniconda3/envs/psi4/share/psi4/basis/aug-cc-pvtz.gbs 
    atoms 4-9, 13-18 entry H          line    40 file /Users/moseschung/miniconda3/envs/psi4/share/psi4/basis/aug-cc-pvtz.gbs 


         ---------------------------------------------------------
                                   SCF
               by Justin Turney, Rob Parrish, Andy Simmonett
                          and Daniel G. A. Smith
                              RHF Reference
                       10 Threads,   9536 MiB Core
         ---------------------------------------------------------

  ==> Geometry <==

    Molecular point group: c1
    Full point group: C1

    Geometry (in Bohr), charge = 0, multiplicity = 1:

       Center              X                  Y                   Z               Mass       
    ------------   -----------------  -----------------  -----------------  -----------------
         C           -2.532667645122    -2.340805641331    -0.467459661928    12.000000000000
         C           -3.427898940892    -0.104658702006     1.059713057730    12.000000000000
         O           -4.967330313926     1.540546311448    -0.351347329876    15.994914619570
         H           -4.004046200926     2.170454390025    -1.755995876738     1.007825032230
         H           -1.351093708466    -3.598231294937     0.669484612823     1.007825032230
         H           -1.429266009098    -1.709612548988    -2.104478381807     1.007825032230
         H           -4.131859717148    -3.424556015376    -1.188832374704     1.007825032230
         H           -1.803242809326     0.907325542973     1.874126436292     1.007825032230
         H           -4.581930119270    -0.740570440484     2.649830664901     1.007825032230
      Gh(C)           2.911981031929     2.484940722098    -0.582691381607    12.000000000000
      Gh(C)           3.815438305523     0.288035835495     0.993771064582    12.000000000000
      Gh(O)           4.210103827372    -1.912533230066    -0.447712023917    15.994914619570
      Gh(H)           2.628537230919    -2.389700415101    -1.204740089228     1.007825032230
      Gh(H)           2.665502163659     4.181147553952     0.567248539709     1.007825032230
      Gh(H)           1.087446678347     2.054702995663    -1.461567097761     1.007825032230
      Gh(H)           4.255563079046     2.900344098448    -2.091261637286     1.007825032230
      Gh(H)           2.485947946123    -0.070743787233     2.553637935937     1.007825032230
      Gh(H)           5.635144408854     0.730248756387     1.865014176915     1.007825032230

  Running in c1 symmetry.

  Rotational constants: A =      0.15746  B =      0.04352  C =      0.03729 [cm^-1]
  Rotational constants: A =   4720.58134  B =   1304.76769  C =   1118.07547 [MHz]
  Nuclear repulsion =   82.163169283628207

  Charge       = 0
  Multiplicity = 1
  Electrons    = 26
  Nalpha       = 13
  Nbeta        = 13

  ==> Algorithm <==

  SCF Algorithm Type is DF.
  DIIS enabled.
  MOM disabled.
  Fractional occupation disabled.
  Guess Type is SAD.
  Energy threshold   = 1.00e-08
  Density threshold  = 1.00e-08
  Integral threshold = 1.00e-12

  ==> Primary Basis <==

  Basis Set: AUG-CC-PVTZ
    Blend: AUG-CC-PVTZ
    Number of shells: 192
    Number of basis functions: 552
    Number of Cartesian functions: 630
    Spherical Harmonics?: true
    Max angular momentum: 3

   => Loading Basis Set <=

    Name: (AUG-CC-PVTZ AUX)
    Role: JKFIT
    Keyword: DF_BASIS_SCF
    atoms 1-2, 10-11 entry C          line   162 file /Users/moseschung/miniconda3/envs/psi4/share/psi4/basis/aug-cc-pvtz-jkfit.gbs 
    atoms 3, 12      entry O          line   286 file /Users/moseschung/miniconda3/envs/psi4/share/psi4/basis/aug-cc-pvtz-jkfit.gbs 
    atoms 4-9, 13-18 entry H          line    70 file /Users/moseschung/miniconda3/envs/psi4/share/psi4/basis/aug-cc-pvtz-jkfit.gbs 

  ==> Integral Setup <==

  DFHelper Memory: AOs need 2.639 GiB; user supplied 6.985 GiB. 
  Using in-core AOs.

  ==> MemDFJK: Density-Fitted J/K Matrices <==

    J tasked:                   Yes
    K tasked:                   Yes
    wK tasked:                   No
    OpenMP threads:              10
    Memory [MiB]:              7152
    Algorithm:                 Core
    Schwarz Cutoff:           1E-12
    Mask sparsity (%):       4.6800
    Fitting Condition:        1E-10

   => Auxiliary Basis Set <=

  Basis Set: (AUG-CC-PVTZ AUX)
    Blend: AUG-CC-PVTZ-JKFIT
    Number of shells: 348
    Number of basis functions: 1176
    Number of Cartesian functions: 1446
    Spherical Harmonics?: true
    Max angular momentum: 4

  Minimum eigenvalue in the overlap matrix is 4.8165104445E-06.
  Reciprocal condition number of the overlap matrix is 2.4129849173E-07.
    Using symmetric orthogonalization.

  ==> Pre-Iterations <==

  SCF Guess: Superposition of Atomic Densities via on-the-fly atomic UHF (no occupation information).

   -------------------------
    Irrep   Nso     Nmo    
   -------------------------
     A        552     552 
   -------------------------
    Total     552     552
   -------------------------

  ==> Iterations <==

                           Total Energy        Delta E     RMS |[F,P]|

   @DF-RHF iter SAD:  -153.45696920709872   -1.53457e+02   0.00000e+00 
   @DF-RHF iter   1:  -154.00337373244494   -5.46405e-01   9.38051e-04 DIIS/ADIIS
   @DF-RHF iter   2:  -154.11526156036999   -1.11888e-01   4.96037e-04 DIIS/ADIIS
   @DF-RHF iter   3:  -154.14333782896063   -2.80763e-02   8.36358e-05 DIIS
   @DF-RHF iter   4:  -154.14491183199803   -1.57400e-03   3.19757e-05 DIIS
   @DF-RHF iter   5:  -154.14509609147530   -1.84259e-04   6.18466e-06 DIIS
   @DF-RHF iter   6:  -154.14510629789825   -1.02064e-05   1.41249e-06 DIIS
   @DF-RHF iter   7:  -154.14510701778744   -7.19889e-07   4.02511e-07 DIIS
   @DF-RHF iter   8:  -154.14510707160045   -5.38130e-08   1.27057e-07 DIIS
   @DF-RHF iter   9:  -154.14510707765152   -6.05107e-09   3.27552e-08 DIIS
   @DF-RHF iter  10:  -154.14510707808319   -4.31669e-10   6.34759e-09 DIIS
  Energy and wave function converged.


  ==> Post-Iterations <==

    Orbital Energies [Eh]
    ---------------------

    Doubly Occupied:                                                      

       1A    -20.555781     2A    -11.273417     3A    -11.218128  
       4A     -1.363283     5A     -1.013594     6A     -0.848065  
       7A     -0.688992     8A     -0.626977     9A     -0.608964  
      10A     -0.545025    11A     -0.527053    12A     -0.479052  
      13A     -0.442927  

    Virtual:                                                              

      14A      0.019433    15A      0.032971    16A      0.035081  
      17A      0.037820    18A      0.051584    19A      0.053278  
      20A      0.056469    21A      0.062278    22A      0.063307  
      23A      0.076397    24A      0.077387    25A      0.086777  
      26A      0.095479    27A      0.107287    28A      0.114471  
      29A      0.115733    30A      0.118214    31A      0.120217  
      32A      0.129620    33A      0.138697    34A      0.143426  
      35A      0.148942    36A      0.152446    37A      0.157168  
      38A      0.163423    39A      0.176774    40A      0.178589  
      41A      0.187026    42A      0.191890    43A      0.197404  
      44A      0.204526    45A      0.220880    46A      0.224578  
      47A      0.226877    48A      0.232964    49A      0.251357  
      50A      0.254108    51A      0.266324    52A      0.274740  
      53A      0.282145    54A      0.285652    55A      0.294135  
      56A      0.296952    57A      0.302133    58A      0.306764  
      59A      0.311525    60A      0.322367    61A      0.326581  
      62A      0.335990    63A      0.339033    64A      0.345166  
      65A      0.347003    66A      0.349510    67A      0.353285  
      68A      0.359763    69A      0.372299    70A      0.375163  
      71A      0.382017    72A      0.384292    73A      0.389928  
      74A      0.395822    75A      0.413681    76A      0.414721  
      77A      0.423188    78A      0.426780    79A      0.431064  
      80A      0.434781    81A      0.441924    82A      0.447919  
      83A      0.453547    84A      0.461503    85A      0.464243  
      86A      0.474679    87A      0.480965    88A      0.484473  
      89A      0.490135    90A      0.493933    91A      0.503424  
      92A      0.510345    93A      0.514470    94A      0.521763  
      95A      0.525979    96A      0.532388    97A      0.538516  
      98A      0.542466    99A      0.550854   100A      0.554030  
     101A      0.564288   102A      0.571460   103A      0.578847  
     104A      0.587586   105A      0.594237   106A      0.600125  
     107A      0.603137   108A      0.613576   109A      0.621832  
     110A      0.623232   111A      0.633840   112A      0.638677  
     113A      0.645506   114A      0.655211   115A      0.659404  
     116A      0.667071   117A      0.672518   118A      0.681247  
     119A      0.691746   120A      0.698644   121A      0.712245  
     122A      0.719878   123A      0.733270   124A      0.738493  
     125A      0.750876   126A      0.756042   127A      0.771273  
     128A      0.785213   129A      0.792257   130A      0.810470  
     131A      0.817076   132A      0.837585   133A      0.840120  
     134A      0.859029   135A      0.865112   136A      0.870844  
     137A      0.884574   138A      0.890326   139A      0.898639  
     140A      0.903401   141A      0.910283   142A      0.923540  
     143A      0.930822   144A      0.937645   145A      0.940349  
     146A      0.953247   147A      0.957292   148A      0.967423  
     149A      0.975888   150A      0.985065   151A      0.995503  
     152A      0.998404   153A      1.004595   154A      1.015807  
     155A      1.023588   156A      1.037531   157A      1.042197  
     158A      1.052198   159A      1.054684   160A      1.058124  
     161A      1.064710   162A      1.075749   163A      1.080659  
     164A      1.089442   165A      1.093706   166A      1.098498  
     167A      1.106527   168A      1.109565   169A      1.120172  
     170A      1.126547   171A      1.129309   172A      1.139596  
     173A      1.145495   174A      1.152303   175A      1.158346  
     176A      1.166324   177A      1.170750   178A      1.177613  
     179A      1.185643   180A      1.196322   181A      1.202860  
     182A      1.207878   183A      1.218220   184A      1.222044  
     185A      1.236851   186A      1.243044   187A      1.256927  
     188A      1.261389   189A      1.268770   190A      1.272661  
     191A      1.284331   192A      1.293480   193A      1.295061  
     194A      1.305587   195A      1.311788   196A      1.321965  
     197A      1.330448   198A      1.339906   199A      1.345007  
     200A      1.359354   201A      1.369691   202A      1.375088  
     203A      1.384169   204A      1.391561   205A      1.407118  
     206A      1.413355   207A      1.428548   208A      1.433000  
     209A      1.435839   210A      1.448723   211A      1.454567  
     212A      1.456947   213A      1.463222   214A      1.480489  
     215A      1.494204   216A      1.517271   217A      1.525061  
     218A      1.542891   219A      1.545051   220A      1.554864  
     221A      1.557256   222A      1.574901   223A      1.577931  
     224A      1.582054   225A      1.593657   226A      1.607031  
     227A      1.630189   228A      1.635452   229A      1.638575  
     230A      1.648591   231A      1.653046   232A      1.671384  
     233A      1.687197   234A      1.701402   235A      1.707179  
     236A      1.714557   237A      1.719775   238A      1.724653  
     239A      1.737348   240A      1.749750   241A      1.754586  
     242A      1.771638   243A      1.780793   244A      1.787413  
     245A      1.793544   246A      1.817764   247A      1.823725  
     248A      1.833470   249A      1.841257   250A      1.859275  
     251A      1.870342   252A      1.876990   253A      1.896183  
     254A      1.906354   255A      1.919801   256A      1.927277  
     257A      1.936326   258A      1.959352   259A      1.968224  
     260A      1.977406   261A      1.986691   262A      1.997650  
     263A      2.010492   264A      2.019493   265A      2.043328  
     266A      2.046362   267A      2.050543   268A      2.064101  
     269A      2.071275   270A      2.087357   271A      2.093073  
     272A      2.099978   273A      2.108929   274A      2.119841  
     275A      2.125448   276A      2.138752   277A      2.156751  
     278A      2.164166   279A      2.198353   280A      2.207279  
     281A      2.218606   282A      2.231425   283A      2.232370  
     284A      2.252479   285A      2.258090   286A      2.270086  
     287A      2.286546   288A      2.300099   289A      2.309649  
     290A      2.329684   291A      2.337122   292A      2.363741  
     293A      2.381478   294A      2.397247   295A      2.426347  
     296A      2.432468   297A      2.434513   298A      2.447895  
     299A      2.466428   300A      2.487868   301A      2.532047  
     302A      2.534655   303A      2.545307   304A      2.581858  
     305A      2.605374   306A      2.625048   307A      2.638749  
     308A      2.658216   309A      2.686981   310A      2.688779  
     311A      2.709432   312A      2.726402   313A      2.758937  
     314A      2.780906   315A      2.812565   316A      2.819428  
     317A      2.837072   318A      2.868051   319A      2.872969  
     320A      2.892210   321A      2.908744   322A      2.909624  
     323A      2.934471   324A      2.955300   325A      2.967797  
     326A      2.987808   327A      3.024796   328A      3.028039  
     329A      3.068333   330A      3.109140   331A      3.124192  
     332A      3.157772   333A      3.182882   334A      3.208034  
     335A      3.238171   336A      3.268032   337A      3.310950  
     338A      3.372887   339A      3.405987   340A      3.419417  
     341A      3.441829   342A      3.466392   343A      3.496570  
     344A      3.522144   345A      3.574478   346A      3.598808  
     347A      3.603886   348A      3.634513   349A      3.640265  
     350A      3.674490   351A      3.685544   352A      3.704348  
     353A      3.728067   354A      3.762236   355A      3.781926  
     356A      3.807491   357A      3.832434   358A      3.844490  
     359A      3.861062   360A      3.871968   361A      3.911094  
     362A      3.919628   363A      3.938856   364A      3.958080  
     365A      4.004048   366A      4.008714   367A      4.021383  
     368A      4.027237   369A      4.036071   370A      4.073969  
     371A      4.093885   372A      4.111056   373A      4.128016  
     374A      4.153885   375A      4.182316   376A      4.196708  
     377A      4.204991   378A      4.213340   379A      4.232821  
     380A      4.252132   381A      4.262745   382A      4.272256  
     383A      4.284340   384A      4.307436   385A      4.317565  
     386A      4.321124   387A      4.333485   388A      4.345173  
     389A      4.373280   390A      4.380657   391A      4.406757  
     392A      4.422404   393A      4.446462   394A      4.481375  
     395A      4.497165   396A      4.509809   397A      4.524311  
     398A      4.551415   399A      4.556536   400A      4.571329  
     401A      4.586132   402A      4.601983   403A      4.624693  
     404A      4.636170   405A      4.647242   406A      4.658049  
     407A      4.668657   408A      4.698127   409A      4.704818  
     410A      4.719890   411A      4.736450   412A      4.750776  
     413A      4.779900   414A      4.784443   415A      4.799868  
     416A      4.823441   417A      4.841171   418A      4.850409  
     419A      4.863971   420A      4.884051   421A      4.896453  
     422A      4.915832   423A      4.946809   424A      4.950216  
     425A      4.955210   426A      4.963069   427A      4.979054  
     428A      5.008621   429A      5.014655   430A      5.031627  
     431A      5.037164   432A      5.064358   433A      5.068486  
     434A      5.092334   435A      5.103030   436A      5.120242  
     437A      5.143040   438A      5.166909   439A      5.186203  
     440A      5.206213   441A      5.237375   442A      5.244435  
     443A      5.266891   444A      5.278664   445A      5.310704  
     446A      5.335533   447A      5.353171   448A      5.372423  
     449A      5.380424   450A      5.396888   451A      5.401972  
     452A      5.435353   453A      5.455481   454A      5.458502  
     455A      5.492025   456A      5.514473   457A      5.536815  
     458A      5.554100   459A      5.563297   460A      5.572003  
     461A      5.591459   462A      5.604899   463A      5.621554  
     464A      5.652417   465A      5.658942   466A      5.686951  
     467A      5.694543   468A      5.710356   469A      5.730160  
     470A      5.735212   471A      5.758441   472A      5.784681  
     473A      5.811493   474A      5.841931   475A      5.853810  
     476A      5.869402   477A      5.903648   478A      5.936303  
     479A      6.026354   480A      6.039301   481A      6.076263  
     482A      6.122247   483A      6.132840   484A      6.155644  
     485A      6.167475   486A      6.217482   487A      6.252457  
     488A      6.269228   489A      6.281876   490A      6.300724  
     491A      6.311181   492A      6.372734   493A      6.444963  
     494A      6.468346   495A      6.502256   496A      6.715266  
     497A      6.775703   498A      6.819057   499A      6.861239  
     500A      6.887183   501A      6.924034   502A      6.981274  
     503A      7.004088   504A      7.015577   505A      7.046078  
     506A      7.150089   507A      7.159490   508A      7.166793  
     509A      7.179209   510A      7.361576   511A      7.376311  
     512A      7.436168   513A      7.480515   514A      7.546826  
     515A      7.652309   516A      7.787056   517A      7.829118  
     518A      7.840436   519A      7.871020   520A      7.880099  
     521A      7.901543   522A      7.929699   523A      7.945695  
     524A      8.042561   525A      8.144561   526A      8.213896  
     527A      8.258023   528A      8.308100   529A      8.355350  
     530A      8.379480   531A      8.448047   532A      8.631469  
     533A      8.640578   534A      8.941933   535A      9.040939  
     536A      9.996420   537A     10.074998   538A     10.291501  
     539A     10.400057   540A     10.713491   541A     10.759341  
     542A     11.088544   543A     12.051442   544A     12.389208  
     545A     13.288451   546A     14.205844   547A     16.408758  
     548A     17.962597   549A     18.895401   550A     53.089121  
     551A     54.813873   552A     67.173064  

    Final Occupation by Irrep:
              A 
    DOCC [    13 ]
    NA   [    13 ]
    NB   [    13 ]

  @DF-RHF Final Energy:  -154.14510707808319

   => Energetics <=

    Nuclear Repulsion Energy =             82.1631692836282070
    One-Electron Energy =                -372.2340344075061580
    Two-Electron Energy =                 135.9257580457947938
    Total Energy =                       -154.1451070780831856

Computation Completed


Properties will be evaluated at   0.000000,   0.000000,   0.000000 [a0]

Properties computed using the SCF density matrix


 Multipole Moments:

 ------------------------------------------------------------------------------------
     Multipole            Electronic (a.u.)      Nuclear  (a.u.)        Total (a.u.)
 ------------------------------------------------------------------------------------

 L = 1.  Multiply by 2.5417464519 to convert [e a0] to [Debye]
 Dipole X            :         93.4566571          -92.8034806            0.6531765
 Dipole Y            :          8.5328090           -8.7436059           -0.2107969
 Dipole Z            :         -1.0279395            0.8868768           -0.1410627
 Magnitude           :                                                    0.7006951

 ------------------------------------------------------------------------------------

*** tstop() called on Moses-MBP.lan at Thu Feb 27 18:42:58 2025
Module time:
	user time   =      69.97 seconds =       1.17 minutes
	system time =       5.84 seconds =       0.10 minutes
	total time  =          9 seconds =       0.15 minutes
Total time:
	user time   =     161.67 seconds =       2.69 minutes
	system time =      13.51 seconds =       0.23 minutes
	total time  =         22 seconds =       0.37 minutes

*** tstart() called on Moses-MBP.lan
*** at Thu Feb 27 18:42:58 2025


  //>>>>>>>>>>>>>>>>>>>>>>>>>>>>>>>>>>>//
  //               DFMP2               //
  //<<<<<<<<<<<<<<<<<<<<<<<<<<<<<<<<<<<//

   => Loading Basis Set <=

    Name: (AUG-CC-PVTZ AUX)
    Role: RIFIT
    Keyword: DF_BASIS_MP2
    atoms 1-2, 10-11 entry C          line   148 file /Users/moseschung/miniconda3/envs/psi4/share/psi4/basis/aug-cc-pvtz-ri.gbs 
    atoms 3, 12      entry O          line   264 file /Users/moseschung/miniconda3/envs/psi4/share/psi4/basis/aug-cc-pvtz-ri.gbs 
    atoms 4-9, 13-18 entry H          line    30 file /Users/moseschung/miniconda3/envs/psi4/share/psi4/basis/aug-cc-pvtz-ri.gbs 

	 --------------------------------------------------------
	                          DF-MP2                         
	      2nd-Order Density-Fitted Moller-Plesset Theory     
	              RMP2 Wavefunction,  10 Threads             
	                                                         
	        Rob Parrish, Justin Turney, Andy Simmonett,      
	           Ed Hohenstein, and C. David Sherrill          
	 --------------------------------------------------------

   => Auxiliary Basis Set <=

  Basis Set: (AUG-CC-PVTZ AUX)
    Blend: AUG-CC-PVTZ-RI
    Number of shells: 336
    Number of basis functions: 1188
    Number of Cartesian functions: 1476
    Spherical Harmonics?: true
    Max angular momentum: 4

	 --------------------------------------------------------
	                 NBF =   552, NAUX =  1188
	 --------------------------------------------------------
	   CLASS    FOCC     OCC    AOCC    AVIR     VIR    FVIR
	   PAIRS       0      13      13     539     539       0
	 --------------------------------------------------------

	-----------------------------------------------------------
	 ==================> DF-MP2 Energies <==================== 
	-----------------------------------------------------------
	 Reference Energy          =    -154.1451070780831856 [Eh]
	 Singles Energy            =      -0.0000000000000000 [Eh]
	 Same-Spin Energy          =      -0.1481984957558771 [Eh]
	 Opposite-Spin Energy      =      -0.5185389376687449 [Eh]
	 Correlation Energy        =      -0.6667374334246221 [Eh]
	 Total Energy              =    -154.8118445115078146 [Eh]
	-----------------------------------------------------------
	 ================> DF-SCS-MP2 Energies <================== 
	-----------------------------------------------------------
	 SCS Same-Spin Scale       =       0.3333333333333333 [-]
	 SCS Opposite-Spin Scale   =       1.2000000000000000 [-]
	 SCS Same-Spin Energy      =      -0.0493994985852924 [Eh]
	 SCS Opposite-Spin Energy  =      -0.6222467252024939 [Eh]
	 SCS Correlation Energy    =      -0.6716462237877863 [Eh]
	 SCS Total Energy          =    -154.8167533018709605 [Eh]
	-----------------------------------------------------------


*** tstop() called on Moses-MBP.lan at Thu Feb 27 18:43:01 2025
Module time:
	user time   =      20.19 seconds =       0.34 minutes
	system time =       1.67 seconds =       0.03 minutes
	total time  =          3 seconds =       0.05 minutes
Total time:
	user time   =     181.87 seconds =       3.03 minutes
	system time =      15.18 seconds =       0.25 minutes
	total time  =         25 seconds =       0.42 minutes

    Psi4 stopped on: Thursday, 27 February 2025 06:43PM
    Psi4 wall time for execution: 0:00:12.39


    -----------------------------------------------------------------------
          Psi4: An Open-Source Ab Initio Electronic Structure Package
                               Psi4 1.9.1 release

                         Git: Rev {} zzzzzzz 


    D. G. A. Smith, L. A. Burns, A. C. Simmonett, R. M. Parrish,
    M. C. Schieber, R. Galvelis, P. Kraus, H. Kruse, R. Di Remigio,
    A. Alenaizan, A. M. James, S. Lehtola, J. P. Misiewicz, M. Scheurer,
    R. A. Shaw, J. B. Schriber, Y. Xie, Z. L. Glick, D. A. Sirianni,
    J. S. O'Brien, J. M. Waldrop, A. Kumar, E. G. Hohenstein,
    B. P. Pritchard, B. R. Brooks, H. F. Schaefer III, A. Yu. Sokolov,
    K. Patkowski, A. E. DePrince III, U. Bozkaya, R. A. King,
    F. A. Evangelista, J. M. Turney, T. D. Crawford, C. D. Sherrill,
    J. Chem. Phys. 152(18) 184108 (2020). https://doi.org/10.1063/5.0006002

                            Additional Code Authors
    E. T. Seidl, C. L. Janssen, E. F. Valeev, M. L. Leininger,
    J. F. Gonthier, R. M. Richard, H. R. McAlexander, M. Saitow, X. Wang,
    P. Verma, M. H. Lechner, A. Jiang, S. Behnle, A. G. Heide,
    M. F. Herbst, and D. L. Poole

             Previous Authors, Complete List of Code Contributors,
                       and Citations for Specific Modules
    https://github.com/psi4/psi4/blob/master/codemeta.json
    https://github.com/psi4/psi4/graphs/contributors
    http://psicode.org/psi4manual/master/introduction.html#citing-psifour

    -----------------------------------------------------------------------


    Psi4 started on: Thursday, 27 February 2025 06:42PM

    Process ID: 32680
    Host:       Moses-MBP.lan
    PSIDATADIR: /Users/moseschung/miniconda3/envs/psi4/share/psi4
    Memory:     9.3 GiB
    Threads:    10
    
  ==> Input QCSchema <==

--------------------------------------------------------------------------
{'driver': 'energy',
 'extras': {'psiapi': True, 'wfn_qcvars_only': True},
 'id': None,
 'keywords': {'SCF_TYPE': 'DF', 'function_kwargs': {}},
 'model': {'basis': 'aug-cc-pvtz', 'method': 'mp2'},
 'molecule': {'atom_labels': ['', '', '', '', '', '', '', '', '', '', '', '', '', '', '', '', '', ''],
              'atomic_numbers': [6, 6, 8, 1, 1, 1, 1, 1, 1, 6, 6, 8, 1, 1, 1, 1, 1, 1],
              'extras': {},
              'fix_com': True,
              'fix_orientation': True,
              'fix_symmetry': 'c1',
              'fragment_charges': [0.0, 0.0],
              'fragment_multiplicities': [1, 1],
              'fragments': [[0, 1, 2, 3, 4, 5, 6, 7, 8], [9, 10, 11, 12, 13, 14, 15, 16, 17]],
              'geometry': [-2.5326676451223444, -2.3408056413307374, -0.4674596619283775, -3.4278989408922347,
                           -0.1046587020062309, 1.0597130577297391, -4.967330313926197, 1.5405463114479816,
                           -0.3513473298757467, -4.00404620092632, 2.170454390025216, -1.7559958767375539,
                           -1.3510937084663326, -3.5982312949365016, 0.6694846128226974, -1.4292660090981464,
                           -1.7096125489881917, -2.1044783818071067, -4.131859717147785, -3.4245560153762997,
                           -1.188832374703896, -1.8032428093262507, 0.9073255429728198, 1.8741264362921737,
                           -4.5819301192697, -0.7405704404840446, 2.6498306649007306, 2.9119810319287414,
                           2.4849407220977824, -0.5826913816065449, 3.8154383055227497, 0.2880358354945331,
                           0.9937710645818882, 4.210103827372366, -1.912533230065979, -0.44771202391734316,
                           2.6285372309190715, -2.389700415100833, -1.204740089228, 2.665502163659152,
                           4.181147553951976, 0.5672485397093036, 1.087446678346958, 2.0547029956625473,
                           -1.461567097760597, 4.25556307904638, 2.9003440984481728, -2.0912616372856547,
                           2.4859479461226512, -0.07074378723263924, 2.5536379359365506, 5.635144408853989,
                           0.7302487563867939, 1.8650141769152162],
              'mass_numbers': [12, 12, 16, 1, 1, 1, 1, 1, 1, 12, 12, 16, 1, 1, 1, 1, 1, 1],
              'masses': [12.0, 12.0, 15.99491461957, 1.00782503223, 1.00782503223, 1.00782503223, 1.00782503223,
                         1.00782503223, 1.00782503223, 12.0, 12.0, 15.99491461957, 1.00782503223, 1.00782503223,
                         1.00782503223, 1.00782503223, 1.00782503223, 1.00782503223],
              'molecular_charge': 0.0,
              'molecular_multiplicity': 1,
              'name': 'dimer',
              'provenance': {'creator': 'QCElemental',
                             'routine': 'qcelemental.molparse.from_string',
                             'version': '0.29.0'},
              'real': [True, True, True, True, True, True, True, True, True, True, True, True, True, True, True, True,
                       True, True],
              'schema_name': 'qcschema_molecule',
              'schema_version': 2,
              'symbols': ['C', 'C', 'O', 'H', 'H', 'H', 'H', 'H', 'H', 'C', 'C', 'O', 'H', 'H', 'H', 'H', 'H', 'H'],
              'validated': True},
 'protocols': {'stdout': True},
 'provenance': {'creator': 'QCElemental', 'routine': 'qcelemental.models.results', 'version': '0.29.0'},
 'schema_name': 'qcschema_input',
 'schema_version': 1}
--------------------------------------------------------------------------

Scratch directory: /tmp/
   => Libint2 <=

    Primary   basis highest AM E, G, H:  6, 6, 3
    Auxiliary basis highest AM E, G, H:  7, 7, 4
    Onebody   basis highest AM E, G, H:  -, -, -
    Solid Harmonics ordering:            Gaussian

*** tstart() called on Moses-MBP.lan
*** at Thu Feb 27 18:43:01 2025

   => Loading Basis Set <=

    Name: AUG-CC-PVTZ
    Role: ORBITAL
    Keyword: BASIS
    atoms 1-2, 10-11 entry C          line   239 file /Users/moseschung/miniconda3/envs/psi4/share/psi4/basis/aug-cc-pvtz.gbs 
    atoms 3, 12      entry O          line   331 file /Users/moseschung/miniconda3/envs/psi4/share/psi4/basis/aug-cc-pvtz.gbs 
    atoms 4-9, 13-18 entry H          line    40 file /Users/moseschung/miniconda3/envs/psi4/share/psi4/basis/aug-cc-pvtz.gbs 


         ---------------------------------------------------------
                                   SCF
               by Justin Turney, Rob Parrish, Andy Simmonett
                          and Daniel G. A. Smith
                              RHF Reference
                       10 Threads,   9536 MiB Core
         ---------------------------------------------------------

  ==> Geometry <==

    Molecular point group: c1
    Full point group: C1

    Geometry (in Bohr), charge = 0, multiplicity = 1:

       Center              X                  Y                   Z               Mass       
    ------------   -----------------  -----------------  -----------------  -----------------
         C           -2.532667645122    -2.340805641331    -0.467459661928    12.000000000000
         C           -3.427898940892    -0.104658702006     1.059713057730    12.000000000000
         O           -4.967330313926     1.540546311448    -0.351347329876    15.994914619570
         H           -4.004046200926     2.170454390025    -1.755995876738     1.007825032230
         H           -1.351093708466    -3.598231294937     0.669484612823     1.007825032230
         H           -1.429266009098    -1.709612548988    -2.104478381807     1.007825032230
         H           -4.131859717148    -3.424556015376    -1.188832374704     1.007825032230
         H           -1.803242809326     0.907325542973     1.874126436292     1.007825032230
         H           -4.581930119270    -0.740570440484     2.649830664901     1.007825032230
         C            2.911981031929     2.484940722098    -0.582691381607    12.000000000000
         C            3.815438305523     0.288035835495     0.993771064582    12.000000000000
         O            4.210103827372    -1.912533230066    -0.447712023917    15.994914619570
         H            2.628537230919    -2.389700415101    -1.204740089228     1.007825032230
         H            2.665502163659     4.181147553952     0.567248539709     1.007825032230
         H            1.087446678347     2.054702995663    -1.461567097761     1.007825032230
         H            4.255563079046     2.900344098448    -2.091261637286     1.007825032230
         H            2.485947946123    -0.070743787233     2.553637935937     1.007825032230
         H            5.635144408854     0.730248756387     1.865014176915     1.007825032230

  Running in c1 symmetry.

  Rotational constants: A =      0.15746  B =      0.04352  C =      0.03729 [cm^-1]
  Rotational constants: A =   4720.58134  B =   1304.76769  C =   1118.07547 [MHz]
  Nuclear repulsion =  253.165924616443903

  Charge       = 0
  Multiplicity = 1
  Electrons    = 52
  Nalpha       = 26
  Nbeta        = 26

  ==> Algorithm <==

  SCF Algorithm Type is DF.
  DIIS enabled.
  MOM disabled.
  Fractional occupation disabled.
  Guess Type is SAD.
  Energy threshold   = 1.00e-08
  Density threshold  = 1.00e-08
  Integral threshold = 1.00e-12

  ==> Primary Basis <==

  Basis Set: AUG-CC-PVTZ
    Blend: AUG-CC-PVTZ
    Number of shells: 192
    Number of basis functions: 552
    Number of Cartesian functions: 630
    Spherical Harmonics?: true
    Max angular momentum: 3

   => Loading Basis Set <=

    Name: (AUG-CC-PVTZ AUX)
    Role: JKFIT
    Keyword: DF_BASIS_SCF
    atoms 1-2, 10-11 entry C          line   162 file /Users/moseschung/miniconda3/envs/psi4/share/psi4/basis/aug-cc-pvtz-jkfit.gbs 
    atoms 3, 12      entry O          line   286 file /Users/moseschung/miniconda3/envs/psi4/share/psi4/basis/aug-cc-pvtz-jkfit.gbs 
    atoms 4-9, 13-18 entry H          line    70 file /Users/moseschung/miniconda3/envs/psi4/share/psi4/basis/aug-cc-pvtz-jkfit.gbs 

  ==> Integral Setup <==

  DFHelper Memory: AOs need 2.639 GiB; user supplied 6.985 GiB. 
  Using in-core AOs.

  ==> MemDFJK: Density-Fitted J/K Matrices <==

    J tasked:                   Yes
    K tasked:                   Yes
    wK tasked:                   No
    OpenMP threads:              10
    Memory [MiB]:              7152
    Algorithm:                 Core
    Schwarz Cutoff:           1E-12
    Mask sparsity (%):       4.6800
    Fitting Condition:        1E-10

   => Auxiliary Basis Set <=

  Basis Set: (AUG-CC-PVTZ AUX)
    Blend: AUG-CC-PVTZ-JKFIT
    Number of shells: 348
    Number of basis functions: 1176
    Number of Cartesian functions: 1446
    Spherical Harmonics?: true
    Max angular momentum: 4

  Minimum eigenvalue in the overlap matrix is 4.8165104445E-06.
  Reciprocal condition number of the overlap matrix is 2.4129849173E-07.
    Using symmetric orthogonalization.

  ==> Pre-Iterations <==

  SCF Guess: Superposition of Atomic Densities via on-the-fly atomic UHF (no occupation information).

   -------------------------
    Irrep   Nso     Nmo    
   -------------------------
     A        552     552 
   -------------------------
    Total     552     552
   -------------------------

  ==> Iterations <==

                           Total Energy        Delta E     RMS |[F,P]|

   @DF-RHF iter SAD:  -307.13170742550733   -3.07132e+02   0.00000e+00 
   @DF-RHF iter   1:  -308.00732785347907   -8.75620e-01   1.30829e-03 DIIS/ADIIS
   @DF-RHF iter   2:  -308.22934626095912   -2.22018e-01   6.83592e-04 DIIS/ADIIS
   @DF-RHF iter   3:  -308.28259503107728   -5.32488e-02   1.20540e-04 DIIS/ADIIS
   @DF-RHF iter   4:  -308.28581712886597   -3.22210e-03   4.47375e-05 DIIS
   @DF-RHF iter   5:  -308.28617484763754   -3.57719e-04   8.74466e-06 DIIS
   @DF-RHF iter   6:  -308.28619530916779   -2.04615e-05   2.06038e-06 DIIS
   @DF-RHF iter   7:  -308.28619680976931   -1.50060e-06   5.87278e-07 DIIS
   @DF-RHF iter   8:  -308.28619692468033   -1.14911e-07   1.81448e-07 DIIS
   @DF-RHF iter   9:  -308.28619693706491   -1.23846e-08   4.75435e-08 DIIS
   @DF-RHF iter  10:  -308.28619693792189   -8.56971e-10   9.76334e-09 DIIS
  Energy and wave function converged.


  ==> Post-Iterations <==

    Orbital Energies [Eh]
    ---------------------

    Doubly Occupied:                                                      

       1A    -20.563308     2A    -20.559164     3A    -11.281645  
       4A    -11.278496     5A    -11.230266     6A    -11.224466  
       7A     -1.370988     8A     -1.367008     9A     -1.025970  
      10A     -1.019494    11A     -0.859251    12A     -0.852927  
      13A     -0.703669    14A     -0.690834    15A     -0.637904  
      16A     -0.630995    17A     -0.619014    18A     -0.613608  
      19A     -0.556770    20A     -0.551068    21A     -0.539669  
      22A     -0.530475    23A     -0.492481    24A     -0.481424  
      25A     -0.452597    26A     -0.446050  

    Virtual:                                                              

      27A      0.028059    28A      0.033450    29A      0.035226  
      30A      0.041148    31A      0.051679    32A      0.053959  
      33A      0.056333    34A      0.061725    35A      0.066237  
      36A      0.076972    37A      0.084902    38A      0.086797  
      39A      0.113037    40A      0.113796    41A      0.118808  
      42A      0.121182    43A      0.123026    44A      0.130261  
      45A      0.133226    46A      0.144642    47A      0.147810  
      48A      0.151417    49A      0.153895    50A      0.164432  
      51A      0.168068    52A      0.179745    53A      0.186415  
      54A      0.191619    55A      0.201183    56A      0.203612  
      57A      0.207476    58A      0.219937    59A      0.226998  
      60A      0.230318    61A      0.234419    62A      0.250728  
      63A      0.262871    64A      0.267575    65A      0.273493  
      66A      0.281627    67A      0.288704    68A      0.297907  
      69A      0.301486    70A      0.304147    71A      0.308922  
      72A      0.320013    73A      0.324819    74A      0.331126  
      75A      0.333786    76A      0.338455    77A      0.342369  
      78A      0.349570    79A      0.355007    80A      0.361937  
      81A      0.362598    82A      0.370883    83A      0.374845  
      84A      0.379367    85A      0.382959    86A      0.397320  
      87A      0.402438    88A      0.410752    89A      0.412149  
      90A      0.417617    91A      0.424076    92A      0.425372  
      93A      0.433079    94A      0.435884    95A      0.443719  
      96A      0.456067    97A      0.459568    98A      0.467627  
      99A      0.468969   100A      0.473955   101A      0.478799  
     102A      0.482921   103A      0.485727   104A      0.494904  
     105A      0.496970   106A      0.508474   107A      0.513492  
     108A      0.519757   109A      0.523482   110A      0.526905  
     111A      0.532365   112A      0.543553   113A      0.552319  
     114A      0.552792   115A      0.555958   116A      0.566976  
     117A      0.569435   118A      0.579878   119A      0.587340  
     120A      0.594372   121A      0.599957   122A      0.604371  
     123A      0.608011   124A      0.617830   125A      0.623026  
     126A      0.631495   127A      0.645780   128A      0.650536  
     129A      0.655545   130A      0.675117   131A      0.680709  
     132A      0.687618   133A      0.698720   134A      0.708065  
     135A      0.729125   136A      0.732160   137A      0.742938  
     138A      0.761992   139A      0.773747   140A      0.779572  
     141A      0.790229   142A      0.798383   143A      0.809329  
     144A      0.819329   145A      0.824948   146A      0.834638  
     147A      0.839567   148A      0.844245   149A      0.855506  
     150A      0.860129   151A      0.867653   152A      0.877314  
     153A      0.880337   154A      0.889744   155A      0.899013  
     156A      0.901202   157A      0.912882   158A      0.916581  
     159A      0.920534   160A      0.932378   161A      0.939961  
     162A      0.941704   163A      0.948026   164A      0.955766  
     165A      0.961417   166A      0.969152   167A      0.983877  
     168A      0.993037   169A      0.997688   170A      1.008814  
     171A      1.016035   172A      1.023428   173A      1.033634  
     174A      1.038991   175A      1.043107   176A      1.052138  
     177A      1.054506   178A      1.066086   179A      1.070113  
     180A      1.073876   181A      1.077648   182A      1.091875  
     183A      1.100449   184A      1.108010   185A      1.113579  
     186A      1.118352   187A      1.123703   188A      1.130007  
     189A      1.140400   190A      1.145289   191A      1.154904  
     192A      1.162053   193A      1.166874   194A      1.181246  
     195A      1.186064   196A      1.191708   197A      1.198605  
     198A      1.211536   199A      1.215638   200A      1.224757  
     201A      1.240641   202A      1.246483   203A      1.253901  
     204A      1.263601   205A      1.266138   206A      1.270524  
     207A      1.282184   208A      1.284273   209A      1.298579  
     210A      1.311056   211A      1.316446   212A      1.326400  
     213A      1.339202   214A      1.341944   215A      1.350252  
     216A      1.358204   217A      1.362660   218A      1.378394  
     219A      1.392540   220A      1.401216   221A      1.411747  
     222A      1.423246   223A      1.427744   224A      1.443133  
     225A      1.450351   226A      1.453141   227A      1.466215  
     228A      1.472865   229A      1.485994   230A      1.490250  
     231A      1.523612   232A      1.530028   233A      1.542477  
     234A      1.550016   235A      1.562904   236A      1.577926  
     237A      1.589030   238A      1.594198   239A      1.601264  
     240A      1.613685   241A      1.622680   242A      1.628007  
     243A      1.641795   244A      1.653534   245A      1.656184  
     246A      1.661097   247A      1.667347   248A      1.672080  
     249A      1.687630   250A      1.692450   251A      1.712862  
     252A      1.719961   253A      1.725477   254A      1.734005  
     255A      1.740325   256A      1.745254   257A      1.754741  
     258A      1.767682   259A      1.777118   260A      1.786605  
     261A      1.795256   262A      1.803585   263A      1.806267  
     264A      1.822568   265A      1.843493   266A      1.850377  
     267A      1.856559   268A      1.863677   269A      1.866047  
     270A      1.876964   271A      1.890969   272A      1.900994  
     273A      1.919669   274A      1.931557   275A      1.936529  
     276A      1.951946   277A      1.961660   278A      1.977771  
     279A      1.982993   280A      1.995765   281A      2.014033  
     282A      2.021116   283A      2.022019   284A      2.044344  
     285A      2.048713   286A      2.060994   287A      2.062446  
     288A      2.072618   289A      2.083820   290A      2.124664  
     291A      2.135055   292A      2.141044   293A      2.159250  
     294A      2.165338   295A      2.171442   296A      2.179239  
     297A      2.202826   298A      2.207383   299A      2.222293  
     300A      2.241249   301A      2.254506   302A      2.277995  
     303A      2.290605   304A      2.299372   305A      2.310570  
     306A      2.322848   307A      2.338484   308A      2.369697  
     309A      2.380525   310A      2.401682   311A      2.412770  
     312A      2.431317   313A      2.456037   314A      2.472680  
     315A      2.481299   316A      2.485704   317A      2.505429  
     318A      2.546596   319A      2.575402   320A      2.620666  
     321A      2.626156   322A      2.647613   323A      2.673973  
     324A      2.685864   325A      2.696593   326A      2.741144  
     327A      2.756177   328A      2.813007   329A      2.816544  
     330A      2.844419   331A      2.883312   332A      2.894596  
     333A      2.912523   334A      2.921340   335A      2.926891  
     336A      2.960161   337A      2.977206   338A      2.994597  
     339A      3.025761   340A      3.035661   341A      3.056027  
     342A      3.100735   343A      3.117738   344A      3.146811  
     345A      3.169090   346A      3.189330   347A      3.219112  
     348A      3.241004   349A      3.292063   350A      3.323321  
     351A      3.386315   352A      3.416888   353A      3.438603  
     354A      3.452247   355A      3.496987   356A      3.509599  
     357A      3.532931   358A      3.563064   359A      3.575652  
     360A      3.585120   361A      3.601024   362A      3.627578  
     363A      3.637835   364A      3.657083   365A      3.674837  
     366A      3.692791   367A      3.700284   368A      3.711507  
     369A      3.730461   370A      3.742470   371A      3.760778  
     372A      3.776222   373A      3.779766   374A      3.796614  
     375A      3.797734   376A      3.825038   377A      3.845254  
     378A      3.849164   379A      3.868241   380A      3.874179  
     381A      3.899991   382A      3.910597   383A      3.915655  
     384A      3.930336   385A      3.950890   386A      3.961252  
     387A      3.967965   388A      3.996222   389A      4.007346  
     390A      4.008235   391A      4.025427   392A      4.032826  
     393A      4.051425   394A      4.052502   395A      4.067613  
     396A      4.083681   397A      4.097562   398A      4.101473  
     399A      4.119405   400A      4.127911   401A      4.166900  
     402A      4.169515   403A      4.188544   404A      4.209776  
     405A      4.217796   406A      4.226702   407A      4.238774  
     408A      4.251885   409A      4.257766   410A      4.285991  
     411A      4.288934   412A      4.331850   413A      4.338951  
     414A      4.354064   415A      4.367919   416A      4.372255  
     417A      4.390089   418A      4.398776   419A      4.414583  
     420A      4.435010   421A      4.487685   422A      4.507541  
     423A      4.530554   424A      4.538090   425A      4.550784  
     426A      4.564944   427A      4.589312   428A      4.592672  
     429A      4.604243   430A      4.615468   431A      4.623993  
     432A      4.644626   433A      4.650767   434A      4.659365  
     435A      4.699038   436A      4.702937   437A      4.728246  
     438A      4.758994   439A      4.766883   440A      4.805372  
     441A      4.816246   442A      4.836209   443A      4.870594  
     444A      4.875257   445A      4.881894   446A      4.900920  
     447A      4.913384   448A      4.932754   449A      4.937495  
     450A      4.943590   451A      4.956575   452A      4.985260  
     453A      4.993230   454A      5.013992   455A      5.034658  
     456A      5.056771   457A      5.058079   458A      5.068900  
     459A      5.082083   460A      5.085959   461A      5.126270  
     462A      5.137177   463A      5.158431   464A      5.181703  
     465A      5.202842   466A      5.216554   467A      5.255656  
     468A      5.263209   469A      5.279708   470A      5.317803  
     471A      5.319368   472A      5.336930   473A      5.362907  
     474A      5.380468   475A      5.387256   476A      5.415862  
     477A      5.436342   478A      5.452866   479A      5.469388  
     480A      5.504357   481A      5.514933   482A      5.529241  
     483A      5.560753   484A      5.567938   485A      5.590958  
     486A      5.597554   487A      5.634160   488A      5.645343  
     489A      5.656921   490A      5.685151   491A      5.696588  
     492A      5.722673   493A      5.728079   494A      5.746112  
     495A      5.790605   496A      5.807867   497A      5.857944  
     498A      5.872681   499A      6.009082   500A      6.025366  
     501A      6.089125   502A      6.120756   503A      6.134652  
     504A      6.161797   505A      6.191866   506A      6.220770  
     507A      6.245939   508A      6.259828   509A      6.271396  
     510A      6.278823   511A      6.318170   512A      6.342341  
     513A      6.422740   514A      6.446791   515A      6.705783  
     516A      6.716504   517A      6.777769   518A      6.799855  
     519A      6.819364   520A      6.870500   521A      6.900522  
     522A      6.919848   523A      6.986577   524A      7.002128  
     525A      7.011812   526A      7.028937   527A      7.150030  
     528A      7.173415   529A      7.356660   530A      7.389429  
     531A      7.426414   532A      7.433251   533A      7.473786  
     534A      7.517522   535A      7.540534   536A      7.581437  
     537A      7.645120   538A      7.657492   539A      7.857162  
     540A      7.867295   541A      7.926320   542A      8.022678  
     543A      8.245976   544A      8.289566   545A      8.627728  
     546A      8.636306   547A     16.323036   548A     16.623109  
     549A     17.895611   550A     17.956103   551A     18.680653  
     552A     19.062418  

    Final Occupation by Irrep:
              A 
    DOCC [    26 ]
    NA   [    26 ]
    NB   [    26 ]

  @DF-RHF Final Energy:  -308.28619693792189

   => Energetics <=

    Nuclear Repulsion Energy =            253.1659246164439026
    One-Electron Energy =                -921.7451552681163776
    Two-Electron Energy =                 360.2930337137505603
    Total Energy =                       -308.2861969379218863

Computation Completed


Properties will be evaluated at   0.000000,   0.000000,   0.000000 [a0]

Properties computed using the SCF density matrix


 Multipole Moments:

 ------------------------------------------------------------------------------------
     Multipole            Electronic (a.u.)      Nuclear  (a.u.)        Total (a.u.)
 ------------------------------------------------------------------------------------

 L = 1.  Multiply by 2.5417464519 to convert [e a0] to [Debye]
 Dipole X            :          0.0216979            0.0000076            0.0217054
 Dipole Y            :          0.1678808           -0.0000132            0.1678676
 Dipole Z            :         -0.0389490           -0.0000094           -0.0389584
 Magnitude           :                                                    0.1736905

 ------------------------------------------------------------------------------------

*** tstop() called on Moses-MBP.lan at Thu Feb 27 18:50:59 2025
Module time:
	user time   =      81.77 seconds =       1.36 minutes
	system time =       7.61 seconds =       0.13 minutes
	total time  =        478 seconds =       7.97 minutes
Total time:
	user time   =     263.95 seconds =       4.40 minutes
	system time =      22.86 seconds =       0.38 minutes
	total time  =        503 seconds =       8.38 minutes

*** tstart() called on Moses-MBP.lan
*** at Thu Feb 27 18:50:59 2025


  //>>>>>>>>>>>>>>>>>>>>>>>>>>>>>>>>>>>//
  //               DFMP2               //
  //<<<<<<<<<<<<<<<<<<<<<<<<<<<<<<<<<<<//

   => Loading Basis Set <=

    Name: (AUG-CC-PVTZ AUX)
    Role: RIFIT
    Keyword: DF_BASIS_MP2
    atoms 1-2, 10-11 entry C          line   148 file /Users/moseschung/miniconda3/envs/psi4/share/psi4/basis/aug-cc-pvtz-ri.gbs 
    atoms 3, 12      entry O          line   264 file /Users/moseschung/miniconda3/envs/psi4/share/psi4/basis/aug-cc-pvtz-ri.gbs 
    atoms 4-9, 13-18 entry H          line    30 file /Users/moseschung/miniconda3/envs/psi4/share/psi4/basis/aug-cc-pvtz-ri.gbs 

	 --------------------------------------------------------
	                          DF-MP2                         
	      2nd-Order Density-Fitted Moller-Plesset Theory     
	              RMP2 Wavefunction,  10 Threads             
	                                                         
	        Rob Parrish, Justin Turney, Andy Simmonett,      
	           Ed Hohenstein, and C. David Sherrill          
	 --------------------------------------------------------

   => Auxiliary Basis Set <=

  Basis Set: (AUG-CC-PVTZ AUX)
    Blend: AUG-CC-PVTZ-RI
    Number of shells: 336
    Number of basis functions: 1188
    Number of Cartesian functions: 1476
    Spherical Harmonics?: true
    Max angular momentum: 4

	 --------------------------------------------------------
	                 NBF =   552, NAUX =  1188
	 --------------------------------------------------------
	   CLASS    FOCC     OCC    AOCC    AVIR     VIR    FVIR
	   PAIRS       0      26      26     526     526       0
	 --------------------------------------------------------

	-----------------------------------------------------------
	 ==================> DF-MP2 Energies <==================== 
	-----------------------------------------------------------
	 Reference Energy          =    -308.2861969379218863 [Eh]
	 Singles Energy            =      -0.0000000000000000 [Eh]
	 Same-Spin Energy          =      -0.2994804508849919 [Eh]
	 Opposite-Spin Energy      =      -1.0402481091928206 [Eh]
	 Correlation Energy        =      -1.3397285600778126 [Eh]
	 Total Energy              =    -309.6259254979996740 [Eh]
	-----------------------------------------------------------
	 ================> DF-SCS-MP2 Energies <================== 
	-----------------------------------------------------------
	 SCS Same-Spin Scale       =       0.3333333333333333 [-]
	 SCS Opposite-Spin Scale   =       1.2000000000000000 [-]
	 SCS Same-Spin Energy      =      -0.0998268169616640 [Eh]
	 SCS Opposite-Spin Energy  =      -1.2482977310313847 [Eh]
	 SCS Correlation Energy    =      -1.3481245479930486 [Eh]
	 SCS Total Energy          =    -309.6343214859149384 [Eh]
	-----------------------------------------------------------


*** tstop() called on Moses-MBP.lan at Thu Feb 27 18:51:04 2025
Module time:
	user time   =      29.15 seconds =       0.49 minutes
	system time =       2.79 seconds =       0.05 minutes
	total time  =          5 seconds =       0.08 minutes
Total time:
	user time   =     293.11 seconds =       4.89 minutes
	system time =      25.65 seconds =       0.43 minutes
	total time  =        508 seconds =       8.47 minutes

    Psi4 stopped on: Thursday, 27 February 2025 06:51PM
    Psi4 wall time for execution: 0:08:02.40


  //>>>>>>>>>>>>>>>>>>>>>>>>>>>>>>>>>>>//
  //          ManyBody Results         //
  //<<<<<<<<<<<<<<<<<<<<<<<<<<<<<<<<<<<//


   ==> N-Body: Counterpoise Corrected (CP) energies <==

        n-Body     Total Energy            Interaction Energy                          N-body Contribution to Interaction Energy
                   [Eh]                    [Eh]                  [kcal/mol]            [Eh]                  [kcal/mol]
             1  N/A                         0.000000000000        0.000000000000        0.000000000000        0.000000000000
  FULL/RTN   2  N/A                        -0.002162058120       -1.356711953019       -0.002162058120       -1.356711953019


    Psi4 stopped on: Thursday, 27 February 2025 06:51PM
    Psi4 wall time for execution: 0:08:29.03

*** Psi4 exiting successfully. Buy a developer a beer!
