
    -----------------------------------------------------------------------
          Psi4: An Open-Source Ab Initio Electronic Structure Package
                               Psi4 1.9.1 release

                         Git: Rev {} zzzzzzz 


    D. G. A. Smith, L. A. Burns, A. C. Simmonett, R. M. Parrish,
    M. C. Schieber, R. Galvelis, P. Kraus, H. Kruse, R. Di Remigio,
    A. Alenaizan, A. M. James, S. Lehtola, J. P. Misiewicz, M. Scheurer,
    R. A. Shaw, J. B. Schriber, Y. Xie, Z. L. Glick, D. A. Sirianni,
    J. S. O'Brien, J. M. Waldrop, A. Kumar, E. G. Hohenstein,
    B. P. Pritchard, B. R. Brooks, H. F. Schaefer III, A. Yu. Sokolov,
    K. Patkowski, A. E. DePrince III, U. Bozkaya, R. A. King,
    F. A. Evangelista, J. M. Turney, T. D. Crawford, C. D. Sherrill,
    J. Chem. Phys. 152(18) 184108 (2020). https://doi.org/10.1063/5.0006002

                            Additional Code Authors
    E. T. Seidl, C. L. Janssen, E. F. Valeev, M. L. Leininger,
    J. F. Gonthier, R. M. Richard, H. R. McAlexander, M. Saitow, X. Wang,
    P. Verma, M. H. Lechner, A. Jiang, S. Behnle, A. G. Heide,
    M. F. Herbst, and D. L. Poole

             Previous Authors, Complete List of Code Contributors,
                       and Citations for Specific Modules
    https://github.com/psi4/psi4/blob/master/codemeta.json
    https://github.com/psi4/psi4/graphs/contributors
    http://psicode.org/psi4manual/master/introduction.html#citing-psifour

    -----------------------------------------------------------------------


    Psi4 started on: Thursday, 27 February 2025 05:53PM

    Process ID: 32398
    Host:       Moses-MBP.lan
    PSIDATADIR: /Users/moseschung/miniconda3/envs/psi4/share/psi4
    Memory:     500.0 MiB
    Threads:    10
    
  ==> Input File <==

--------------------------------------------------------------------------
MEMORY 10 GB

molecule dimer {
0 1
C    1.919916   1.158802   0.433176
C    2.555492  -0.111534  -0.056569
O    1.547990  -0.896830  -0.655789
H    1.929343  -1.720488  -0.965149
H    2.659934   1.811678   0.898278
H    1.142518   0.939399   1.168522
H    1.455997   1.696381  -0.396440
H    3.023775  -0.646463   0.782073
H    3.353109   0.119292  -0.777244
--
0 1
C   -1.602636  -0.894208   0.874554
C   -1.614125   0.257630  -0.089116
O   -2.946481   0.465005  -0.509966
H   -2.958921   1.164519  -1.165306
H   -0.583627  -1.100036   1.206452
H   -1.995194  -1.792970   0.394912
H   -2.225105  -0.676357   1.744787
H   -0.952193   0.036233  -0.937217
H   -1.213583   1.159277   0.400096

units ang
no_reorient
no_com
symmetry c1
}

set {
basis        aug-cc-pVTZ
scf_type     df
}

energy("mp2", bsse_type="cp")
--------------------------------------------------------------------------

  Memory set to   9.313 GiB by Python driver.

Scratch directory: /tmp/

  //>>>>>>>>>>>>>>>>>>>>>>>>>>>>>>>>>>>>>//
  // ManyBody Setup: N-Body Levels [1, 2]//
  //<<<<<<<<<<<<<<<<<<<<<<<<<<<<<<<<<<<<<//

        Number of 1-body computations:     2
        Number of 2-body computations:     1

    -----------------------------------------------------------------------
          Psi4: An Open-Source Ab Initio Electronic Structure Package
                               Psi4 1.9.1 release

                         Git: Rev {} zzzzzzz 


    D. G. A. Smith, L. A. Burns, A. C. Simmonett, R. M. Parrish,
    M. C. Schieber, R. Galvelis, P. Kraus, H. Kruse, R. Di Remigio,
    A. Alenaizan, A. M. James, S. Lehtola, J. P. Misiewicz, M. Scheurer,
    R. A. Shaw, J. B. Schriber, Y. Xie, Z. L. Glick, D. A. Sirianni,
    J. S. O'Brien, J. M. Waldrop, A. Kumar, E. G. Hohenstein,
    B. P. Pritchard, B. R. Brooks, H. F. Schaefer III, A. Yu. Sokolov,
    K. Patkowski, A. E. DePrince III, U. Bozkaya, R. A. King,
    F. A. Evangelista, J. M. Turney, T. D. Crawford, C. D. Sherrill,
    J. Chem. Phys. 152(18) 184108 (2020). https://doi.org/10.1063/5.0006002

                            Additional Code Authors
    E. T. Seidl, C. L. Janssen, E. F. Valeev, M. L. Leininger,
    J. F. Gonthier, R. M. Richard, H. R. McAlexander, M. Saitow, X. Wang,
    P. Verma, M. H. Lechner, A. Jiang, S. Behnle, A. G. Heide,
    M. F. Herbst, and D. L. Poole

             Previous Authors, Complete List of Code Contributors,
                       and Citations for Specific Modules
    https://github.com/psi4/psi4/blob/master/codemeta.json
    https://github.com/psi4/psi4/graphs/contributors
    http://psicode.org/psi4manual/master/introduction.html#citing-psifour

    -----------------------------------------------------------------------


    Psi4 started on: Thursday, 27 February 2025 05:53PM

    Process ID: 32398
    Host:       Moses-MBP.lan
    PSIDATADIR: /Users/moseschung/miniconda3/envs/psi4/share/psi4
    Memory:     9.3 GiB
    Threads:    10
    
  ==> Input QCSchema <==

--------------------------------------------------------------------------
{'driver': 'energy',
 'extras': {'psiapi': True, 'wfn_qcvars_only': True},
 'id': None,
 'keywords': {'SCF_TYPE': 'DF', 'function_kwargs': {}},
 'model': {'basis': 'aug-cc-pvtz', 'method': 'mp2'},
 'molecule': {'atom_labels': ['', '', '', '', '', '', '', '', '', '', '', '', '', '', '', '', '', ''],
              'atomic_numbers': [6, 6, 8, 1, 1, 1, 1, 1, 1, 6, 6, 8, 1, 1, 1, 1, 1, 1],
              'extras': {},
              'fix_com': True,
              'fix_orientation': True,
              'fix_symmetry': 'c1',
              'fragment_charges': [0.0, 0.0],
              'fragment_multiplicities': [1, 1],
              'fragments': [[0, 1, 2, 3, 4, 5, 6, 7, 8], [9, 10, 11, 12, 13, 14, 15, 16, 17]],
              'geometry': [3.6281154238844917, 2.1898184136327825, 0.8185840041213202, 4.8291799957984765,
                           -0.21076871367681338, -0.10689991719102389, 2.9252771449474633, -1.6947630810943441,
                           -1.2392616060878636, 3.645929872069182, -3.2512511221366878, -1.8238672802594975,
                           5.026546771793543, 3.423575247517187, 1.697499404524007, 2.1590461134058265,
                           1.7752068325289583, 2.2081865515722323, 2.7514355694882213, 3.205695494430276,
                           -0.7491630251765015, 5.714106615006244, -1.221638020241844, 1.47790378011518,
                           6.336457678807773, 0.22542920895811522, -1.4687782926553443, -3.0285431187992318,
                           -1.6898082191933936, 1.6526675419236456, -3.050254182254617, 0.4868501417017003,
                           -0.16840483339629977, -5.568042123865107, 0.8787320969685174, -0.9636960732952269,
                           -5.591550316865803, 2.2006219778920246, -2.2021091923527596, -1.1028951894225758,
                           -2.0787667681441273, 2.279863863510848, -3.7703702271567057, -3.388222251162122,
                           0.7462755236568018, -4.204839050386841, -1.2781294930362803, 3.297169577259188,
                           -1.7993839885780656, 0.0684704467037135, -1.7710834501232093, -2.2933395005114874,
                           2.1907160335423743, 0.7560718638911752],
              'mass_numbers': [12, 12, 16, 1, 1, 1, 1, 1, 1, 12, 12, 16, 1, 1, 1, 1, 1, 1],
              'masses': [12.0, 12.0, 15.99491461957, 1.00782503223, 1.00782503223, 1.00782503223, 1.00782503223,
                         1.00782503223, 1.00782503223, 12.0, 12.0, 15.99491461957, 1.00782503223, 1.00782503223,
                         1.00782503223, 1.00782503223, 1.00782503223, 1.00782503223],
              'molecular_charge': 0.0,
              'molecular_multiplicity': 1,
              'name': 'dimer',
              'provenance': {'creator': 'QCElemental',
                             'routine': 'qcelemental.molparse.from_string',
                             'version': '0.29.0'},
              'real': [False, False, False, False, False, False, False, False, False, True, True, True, True, True,
                       True, True, True, True],
              'schema_name': 'qcschema_molecule',
              'schema_version': 2,
              'symbols': ['C', 'C', 'O', 'H', 'H', 'H', 'H', 'H', 'H', 'C', 'C', 'O', 'H', 'H', 'H', 'H', 'H', 'H'],
              'validated': True},
 'protocols': {'stdout': True},
 'provenance': {'creator': 'QCElemental', 'routine': 'qcelemental.models.results', 'version': '0.29.0'},
 'schema_name': 'qcschema_input',
 'schema_version': 1}
--------------------------------------------------------------------------

Scratch directory: /tmp/
   => Libint2 <=

    Primary   basis highest AM E, G, H:  6, 6, 3
    Auxiliary basis highest AM E, G, H:  7, 7, 4
    Onebody   basis highest AM E, G, H:  -, -, -
    Solid Harmonics ordering:            Gaussian

*** tstart() called on Moses-MBP.lan
*** at Thu Feb 27 17:53:33 2025

   => Loading Basis Set <=

    Name: AUG-CC-PVTZ
    Role: ORBITAL
    Keyword: BASIS
    atoms 1-2, 10-11 entry C          line   239 file /Users/moseschung/miniconda3/envs/psi4/share/psi4/basis/aug-cc-pvtz.gbs 
    atoms 3, 12      entry O          line   331 file /Users/moseschung/miniconda3/envs/psi4/share/psi4/basis/aug-cc-pvtz.gbs 
    atoms 4-9, 13-18 entry H          line    40 file /Users/moseschung/miniconda3/envs/psi4/share/psi4/basis/aug-cc-pvtz.gbs 


         ---------------------------------------------------------
                                   SCF
               by Justin Turney, Rob Parrish, Andy Simmonett
                          and Daniel G. A. Smith
                              RHF Reference
                       10 Threads,   9536 MiB Core
         ---------------------------------------------------------

  ==> Geometry <==

    Molecular point group: c1
    Full point group: C1

    Geometry (in Bohr), charge = 0, multiplicity = 1:

       Center              X                  Y                   Z               Mass       
    ------------   -----------------  -----------------  -----------------  -----------------
      Gh(C)           3.628115423884     2.189818413633     0.818584004121    12.000000000000
      Gh(C)           4.829179995798    -0.210768713677    -0.106899917191    12.000000000000
      Gh(O)           2.925277144947    -1.694763081094    -1.239261606088    15.994914619570
      Gh(H)           3.645929872069    -3.251251122137    -1.823867280259     1.007825032230
      Gh(H)           5.026546771794     3.423575247517     1.697499404524     1.007825032230
      Gh(H)           2.159046113406     1.775206832529     2.208186551572     1.007825032230
      Gh(H)           2.751435569488     3.205695494430    -0.749163025177     1.007825032230
      Gh(H)           5.714106615006    -1.221638020242     1.477903780115     1.007825032230
      Gh(H)           6.336457678808     0.225429208958    -1.468778292655     1.007825032230
         C           -3.028543118799    -1.689808219193     1.652667541924    12.000000000000
         C           -3.050254182255     0.486850141702    -0.168404833396    12.000000000000
         O           -5.568042123865     0.878732096969    -0.963696073295    15.994914619570
         H           -5.591550316866     2.200621977892    -2.202109192353     1.007825032230
         H           -1.102895189423    -2.078766768144     2.279863863511     1.007825032230
         H           -3.770370227157    -3.388222251162     0.746275523657     1.007825032230
         H           -4.204839050387    -1.278129493036     3.297169577259     1.007825032230
         H           -1.799383988578     0.068470446704    -1.771083450123     1.007825032230
         H           -2.293339500511     2.190716033542     0.756071863891     1.007825032230

  Running in c1 symmetry.

  Rotational constants: A =      0.17688  B =      0.03733  C =      0.03523 [cm^-1]
  Rotational constants: A =   5302.65908  B =   1119.18895  C =   1056.16994 [MHz]
  Nuclear repulsion =   82.241998999682252

  Charge       = 0
  Multiplicity = 1
  Electrons    = 26
  Nalpha       = 13
  Nbeta        = 13

  ==> Algorithm <==

  SCF Algorithm Type is DF.
  DIIS enabled.
  MOM disabled.
  Fractional occupation disabled.
  Guess Type is SAD.
  Energy threshold   = 1.00e-08
  Density threshold  = 1.00e-08
  Integral threshold = 1.00e-12

  ==> Primary Basis <==

  Basis Set: AUG-CC-PVTZ
    Blend: AUG-CC-PVTZ
    Number of shells: 192
    Number of basis functions: 552
    Number of Cartesian functions: 630
    Spherical Harmonics?: true
    Max angular momentum: 3

   => Loading Basis Set <=

    Name: (AUG-CC-PVTZ AUX)
    Role: JKFIT
    Keyword: DF_BASIS_SCF
    atoms 1-2, 10-11 entry C          line   162 file /Users/moseschung/miniconda3/envs/psi4/share/psi4/basis/aug-cc-pvtz-jkfit.gbs 
    atoms 3, 12      entry O          line   286 file /Users/moseschung/miniconda3/envs/psi4/share/psi4/basis/aug-cc-pvtz-jkfit.gbs 
    atoms 4-9, 13-18 entry H          line    70 file /Users/moseschung/miniconda3/envs/psi4/share/psi4/basis/aug-cc-pvtz-jkfit.gbs 

  ==> Integral Setup <==

  DFHelper Memory: AOs need 2.599 GiB; user supplied 6.985 GiB. 
  Using in-core AOs.

  ==> MemDFJK: Density-Fitted J/K Matrices <==

    J tasked:                   Yes
    K tasked:                   Yes
    wK tasked:                   No
    OpenMP threads:              10
    Memory [MiB]:              7152
    Algorithm:                 Core
    Schwarz Cutoff:           1E-12
    Mask sparsity (%):       6.1844
    Fitting Condition:        1E-10

   => Auxiliary Basis Set <=

  Basis Set: (AUG-CC-PVTZ AUX)
    Blend: AUG-CC-PVTZ-JKFIT
    Number of shells: 348
    Number of basis functions: 1176
    Number of Cartesian functions: 1446
    Spherical Harmonics?: true
    Max angular momentum: 4

  Minimum eigenvalue in the overlap matrix is 8.8611874497E-06.
  Reciprocal condition number of the overlap matrix is 4.8007663603E-07.
    Using symmetric orthogonalization.

  ==> Pre-Iterations <==

  SCF Guess: Superposition of Atomic Densities via on-the-fly atomic UHF (no occupation information).

   -------------------------
    Irrep   Nso     Nmo    
   -------------------------
     A        552     552 
   -------------------------
    Total     552     552
   -------------------------

  ==> Iterations <==

                           Total Energy        Delta E     RMS |[F,P]|

   @DF-RHF iter SAD:  -153.45011838792149   -1.53450e+02   0.00000e+00 
   @DF-RHF iter   1:  -153.99865356837819   -5.48535e-01   9.60479e-04 ADIIS/DIIS
   @DF-RHF iter   2:  -154.11081257868398   -1.12159e-01   5.34042e-04 ADIIS/DIIS
   @DF-RHF iter   3:  -154.14371995022282   -3.29074e-02   8.44445e-05 DIIS
   @DF-RHF iter   4:  -154.14531570775168   -1.59576e-03   3.23912e-05 DIIS
   @DF-RHF iter   5:  -154.14550005440401   -1.84347e-04   5.76392e-06 DIIS
   @DF-RHF iter   6:  -154.14550964491275   -9.59051e-06   1.27484e-06 DIIS
   @DF-RHF iter   7:  -154.14551019902046   -5.54108e-07   3.90825e-07 DIIS
   @DF-RHF iter   8:  -154.14551024245696   -4.34365e-08   1.04723e-07 DIIS
   @DF-RHF iter   9:  -154.14551024660514   -4.14818e-09   2.51809e-08 DIIS
   @DF-RHF iter  10:  -154.14551024686497   -2.59831e-10   4.78358e-09 DIIS
  Energy and wave function converged.


  ==> Post-Iterations <==

    Orbital Energies [Eh]
    ---------------------

    Doubly Occupied:                                                      

       1A    -20.556260     2A    -11.273703     3A    -11.210759  
       4A     -1.361866     5A     -1.014650     6A     -0.832734  
       7A     -0.703673     8A     -0.645206     9A     -0.574442  
      10A     -0.533869    11A     -0.523972    12A     -0.489318  
      13A     -0.440234  

    Virtual:                                                              

      14A      0.019691    15A      0.032129    16A      0.034254  
      17A      0.037472    18A      0.050884    19A      0.053557  
      20A      0.054686    21A      0.060141    22A      0.061921  
      23A      0.075627    24A      0.079043    25A      0.086200  
      26A      0.091511    27A      0.109652    28A      0.113413  
      29A      0.117882    30A      0.121358    31A      0.122310  
      32A      0.125642    33A      0.140165    34A      0.146257  
      35A      0.148774    36A      0.155220    37A      0.158105  
      38A      0.165241    39A      0.167676    40A      0.175074  
      41A      0.189556    42A      0.198729    43A      0.207017  
      44A      0.212541    45A      0.214400    46A      0.221095  
      47A      0.233974    48A      0.235450    49A      0.251612  
      50A      0.253577    51A      0.266490    52A      0.273789  
      53A      0.280474    54A      0.284309    55A      0.285399  
      56A      0.299967    57A      0.302927    58A      0.306498  
      59A      0.316215    60A      0.327435    61A      0.331900  
      62A      0.336768    63A      0.343684    64A      0.345622  
      65A      0.357029    66A      0.358640    67A      0.361366  
      68A      0.363584    69A      0.371188    70A      0.373659  
      71A      0.379860    72A      0.384249    73A      0.385560  
      74A      0.389513    75A      0.403606    76A      0.406448  
      77A      0.407754    78A      0.422049    79A      0.425849  
      80A      0.435330    81A      0.435823    82A      0.447305  
      83A      0.450071    84A      0.452691    85A      0.459854  
      86A      0.462448    87A      0.468556    88A      0.469775  
      89A      0.480151    90A      0.485295    91A      0.488287  
      92A      0.492763    93A      0.496527    94A      0.506114  
      95A      0.511825    96A      0.518652    97A      0.521964  
      98A      0.530577    99A      0.538327   100A      0.550625  
     101A      0.553715   102A      0.561058   103A      0.574466  
     104A      0.577357   105A      0.588878   106A      0.594914  
     107A      0.600580   108A      0.605612   109A      0.608965  
     110A      0.615864   111A      0.626785   112A      0.637881  
     113A      0.639443   114A      0.650377   115A      0.651082  
     116A      0.658961   117A      0.672213   118A      0.680774  
     119A      0.686340   120A      0.695443   121A      0.703987  
     122A      0.713735   123A      0.723099   124A      0.745376  
     125A      0.755424   126A      0.757118   127A      0.761712  
     128A      0.782474   129A      0.786650   130A      0.802291  
     131A      0.816790   132A      0.830427   133A      0.837188  
     134A      0.838138   135A      0.853586   136A      0.856598  
     137A      0.864934   138A      0.871179   139A      0.878842  
     140A      0.897752   141A      0.900329   142A      0.904724  
     143A      0.917661   144A      0.921156   145A      0.928216  
     146A      0.935416   147A      0.947305   148A      0.952434  
     149A      0.958201   150A      0.976212   151A      0.983307  
     152A      0.986048   153A      0.992658   154A      1.003829  
     155A      1.018636   156A      1.022293   157A      1.024996  
     158A      1.031791   159A      1.038021   160A      1.040731  
     161A      1.046785   162A      1.053403   163A      1.059450  
     164A      1.074624   165A      1.077595   166A      1.085773  
     167A      1.091422   168A      1.097446   169A      1.102989  
     170A      1.110312   171A      1.115082   172A      1.119620  
     173A      1.127857   174A      1.133878   175A      1.145858  
     176A      1.147143   177A      1.154704   178A      1.164177  
     179A      1.169666   180A      1.172587   181A      1.176255  
     182A      1.190006   183A      1.200430   184A      1.204017  
     185A      1.215500   186A      1.216985   187A      1.226907  
     188A      1.240108   189A      1.245905   190A      1.250000  
     191A      1.252384   192A      1.264764   193A      1.271777  
     194A      1.284519   195A      1.291099   196A      1.296994  
     197A      1.317122   198A      1.321646   199A      1.332101  
     200A      1.338664   201A      1.346595   202A      1.355473  
     203A      1.361142   204A      1.362682   205A      1.373208  
     206A      1.382144   207A      1.397289   208A      1.399108  
     209A      1.418205   210A      1.422717   211A      1.434692  
     212A      1.448546   213A      1.452442   214A      1.456564  
     215A      1.468141   216A      1.477115   217A      1.489971  
     218A      1.501449   219A      1.513614   220A      1.524302  
     221A      1.534058   222A      1.539772   223A      1.553757  
     224A      1.555537   225A      1.563772   226A      1.571055  
     227A      1.579731   228A      1.589112   229A      1.601982  
     230A      1.619231   231A      1.639066   232A      1.643241  
     233A      1.660072   234A      1.663720   235A      1.673334  
     236A      1.680482   237A      1.688751   238A      1.706352  
     239A      1.713255   240A      1.725013   241A      1.735719  
     242A      1.746472   243A      1.752570   244A      1.771344  
     245A      1.772241   246A      1.784851   247A      1.789092  
     248A      1.799100   249A      1.802891   250A      1.831820  
     251A      1.841364   252A      1.852029   253A      1.857236  
     254A      1.872944   255A      1.877228   256A      1.898136  
     257A      1.909265   258A      1.933852   259A      1.936476  
     260A      1.946410   261A      1.955286   262A      1.967722  
     263A      1.980909   264A      1.997672   265A      2.001709  
     266A      2.010940   267A      2.024421   268A      2.035119  
     269A      2.047980   270A      2.062862   271A      2.075351  
     272A      2.086995   273A      2.090795   274A      2.106879  
     275A      2.113793   276A      2.123357   277A      2.128802  
     278A      2.148479   279A      2.169785   280A      2.180285  
     281A      2.194198   282A      2.200429   283A      2.217897  
     284A      2.220548   285A      2.244655   286A      2.250490  
     287A      2.256469   288A      2.276593   289A      2.281009  
     290A      2.294008   291A      2.306437   292A      2.330567  
     293A      2.349331   294A      2.353998   295A      2.380136  
     296A      2.400298   297A      2.425629   298A      2.435464  
     299A      2.459165   300A      2.473093   301A      2.483767  
     302A      2.500472   303A      2.522776   304A      2.541945  
     305A      2.561828   306A      2.579995   307A      2.604626  
     308A      2.613613   309A      2.640474   310A      2.674669  
     311A      2.686786   312A      2.715331   313A      2.724822  
     314A      2.741139   315A      2.764979   316A      2.771987  
     317A      2.790708   318A      2.808680   319A      2.852572  
     320A      2.863121   321A      2.889764   322A      2.898082  
     323A      2.926159   324A      2.943924   325A      2.972235  
     326A      2.974693   327A      2.991691   328A      3.009076  
     329A      3.048179   330A      3.061896   331A      3.075469  
     332A      3.098224   333A      3.152910   334A      3.176817  
     335A      3.194353   336A      3.268987   337A      3.303064  
     338A      3.334229   339A      3.356059   340A      3.378263  
     341A      3.410864   342A      3.472804   343A      3.474160  
     344A      3.491629   345A      3.506281   346A      3.528912  
     347A      3.576965   348A      3.587676   349A      3.617083  
     350A      3.620911   351A      3.653330   352A      3.663795  
     353A      3.681332   354A      3.704184   355A      3.738810  
     356A      3.782646   357A      3.800482   358A      3.815062  
     359A      3.837213   360A      3.848274   361A      3.884693  
     362A      3.889551   363A      3.926021   364A      3.967036  
     365A      3.987226   366A      3.992121   367A      3.995669  
     368A      4.024035   369A      4.041939   370A      4.070104  
     371A      4.098083   372A      4.115180   373A      4.124751  
     374A      4.128679   375A      4.141933   376A      4.150697  
     377A      4.166129   378A      4.186042   379A      4.195470  
     380A      4.211410   381A      4.223067   382A      4.233516  
     383A      4.246987   384A      4.270478   385A      4.282000  
     386A      4.328126   387A      4.332264   388A      4.349076  
     389A      4.354584   390A      4.366924   391A      4.380478  
     392A      4.393283   393A      4.439816   394A      4.453169  
     395A      4.472099   396A      4.499522   397A      4.513925  
     398A      4.544910   399A      4.558159   400A      4.570906  
     401A      4.576541   402A      4.591769   403A      4.602662  
     404A      4.625719   405A      4.628091   406A      4.641220  
     407A      4.667725   408A      4.676680   409A      4.685107  
     410A      4.695880   411A      4.726455   412A      4.742158  
     413A      4.753514   414A      4.756029   415A      4.771700  
     416A      4.799143   417A      4.822877   418A      4.836217  
     419A      4.866842   420A      4.885688   421A      4.888652  
     422A      4.897518   423A      4.911553   424A      4.924815  
     425A      4.937685   426A      4.942660   427A      4.959143  
     428A      4.985128   429A      5.023042   430A      5.035850  
     431A      5.041631   432A      5.052201   433A      5.056458  
     434A      5.078499   435A      5.098613   436A      5.120114  
     437A      5.147708   438A      5.156094   439A      5.173785  
     440A      5.211127   441A      5.215726   442A      5.226828  
     443A      5.238493   444A      5.270821   445A      5.292292  
     446A      5.322296   447A      5.341355   448A      5.365188  
     449A      5.366654   450A      5.381360   451A      5.387435  
     452A      5.393976   453A      5.416340   454A      5.439196  
     455A      5.455460   456A      5.515628   457A      5.517963  
     458A      5.537150   459A      5.540980   460A      5.566466  
     461A      5.583394   462A      5.588481   463A      5.595262  
     464A      5.603853   465A      5.621356   466A      5.636411  
     467A      5.659720   468A      5.694055   469A      5.732852  
     470A      5.756966   471A      5.770580   472A      5.789124  
     473A      5.824059   474A      5.838979   475A      5.858134  
     476A      5.864263   477A      5.923484   478A      5.984563  
     479A      6.016965   480A      6.038988   481A      6.058983  
     482A      6.069177   483A      6.094663   484A      6.120435  
     485A      6.148902   486A      6.180668   487A      6.196819  
     488A      6.234358   489A      6.243027   490A      6.283384  
     491A      6.306216   492A      6.313520   493A      6.441321  
     494A      6.459037   495A      6.549872   496A      6.709867  
     497A      6.732100   498A      6.792066   499A      6.840649  
     500A      6.858512   501A      6.876139   502A      6.928067  
     503A      6.946106   504A      6.953502   505A      7.026861  
     506A      7.058344   507A      7.133038   508A      7.182274  
     509A      7.243586   510A      7.295919   511A      7.367262  
     512A      7.371218   513A      7.509621   514A      7.547184  
     515A      7.631180   516A      7.740515   517A      7.840434  
     518A      7.851369   519A      7.861086   520A      7.879284  
     521A      7.900413   522A      7.949493   523A      7.974779  
     524A      8.051728   525A      8.132846   526A      8.146038  
     527A      8.180881   528A      8.256633   529A      8.340174  
     530A      8.372099   531A      8.414210   532A      8.621746  
     533A      8.665213   534A      8.889269   535A      9.062795  
     536A      9.959670   537A     10.121562   538A     10.355325  
     539A     10.402551   540A     10.431376   541A     10.807089  
     542A     11.112763   543A     11.894702   544A     12.369993  
     545A     13.288615   546A     14.157304   547A     16.179078  
     548A     18.126574   549A     18.609564   550A     53.238945  
     551A     54.288132   552A     66.082376  

    Final Occupation by Irrep:
              A 
    DOCC [    13 ]
    NA   [    13 ]
    NB   [    13 ]

  @DF-RHF Final Energy:  -154.14551024686497

   => Energetics <=

    Nuclear Repulsion Energy =             82.2419989996822522
    One-Electron Energy =                -372.4536467930668664
    Two-Electron Energy =                 136.0661375465196272
    Total Energy =                       -154.1455102468649727

Computation Completed


Properties will be evaluated at   0.000000,   0.000000,   0.000000 [a0]

Properties computed using the SCF density matrix


 Multipole Moments:

 ------------------------------------------------------------------------------------
     Multipole            Electronic (a.u.)      Nuclear  (a.u.)        Total (a.u.)
 ------------------------------------------------------------------------------------

 L = 1.  Multiply by 2.5417464519 to convert [e a0] to [Debye]
 Dipole X            :        100.3167905          -99.7794991            0.5372914
 Dipole Y            :          2.7928173           -2.4732017            0.3196156
 Dipole Z            :         -4.5180807            4.3021959           -0.2158849
 Magnitude           :                                                    0.6613944

 ------------------------------------------------------------------------------------

*** tstop() called on Moses-MBP.lan at Thu Feb 27 17:53:42 2025
Module time:
	user time   =      72.35 seconds =       1.21 minutes
	system time =       4.92 seconds =       0.08 minutes
	total time  =          9 seconds =       0.15 minutes
Total time:
	user time   =      72.35 seconds =       1.21 minutes
	system time =       4.92 seconds =       0.08 minutes
	total time  =          9 seconds =       0.15 minutes

*** tstart() called on Moses-MBP.lan
*** at Thu Feb 27 17:53:42 2025


  //>>>>>>>>>>>>>>>>>>>>>>>>>>>>>>>>>>>//
  //               DFMP2               //
  //<<<<<<<<<<<<<<<<<<<<<<<<<<<<<<<<<<<//

   => Loading Basis Set <=

    Name: (AUG-CC-PVTZ AUX)
    Role: RIFIT
    Keyword: DF_BASIS_MP2
    atoms 1-2, 10-11 entry C          line   148 file /Users/moseschung/miniconda3/envs/psi4/share/psi4/basis/aug-cc-pvtz-ri.gbs 
    atoms 3, 12      entry O          line   264 file /Users/moseschung/miniconda3/envs/psi4/share/psi4/basis/aug-cc-pvtz-ri.gbs 
    atoms 4-9, 13-18 entry H          line    30 file /Users/moseschung/miniconda3/envs/psi4/share/psi4/basis/aug-cc-pvtz-ri.gbs 

	 --------------------------------------------------------
	                          DF-MP2                         
	      2nd-Order Density-Fitted Moller-Plesset Theory     
	              RMP2 Wavefunction,  10 Threads             
	                                                         
	        Rob Parrish, Justin Turney, Andy Simmonett,      
	           Ed Hohenstein, and C. David Sherrill          
	 --------------------------------------------------------

   => Auxiliary Basis Set <=

  Basis Set: (AUG-CC-PVTZ AUX)
    Blend: AUG-CC-PVTZ-RI
    Number of shells: 336
    Number of basis functions: 1188
    Number of Cartesian functions: 1476
    Spherical Harmonics?: true
    Max angular momentum: 4

	 --------------------------------------------------------
	                 NBF =   552, NAUX =  1188
	 --------------------------------------------------------
	   CLASS    FOCC     OCC    AOCC    AVIR     VIR    FVIR
	   PAIRS       0      13      13     539     539       0
	 --------------------------------------------------------

	-----------------------------------------------------------
	 ==================> DF-MP2 Energies <==================== 
	-----------------------------------------------------------
	 Reference Energy          =    -154.1455102468649727 [Eh]
	 Singles Energy            =      -0.0000000000000000 [Eh]
	 Same-Spin Energy          =      -0.1481342222442412 [Eh]
	 Opposite-Spin Energy      =      -0.5182089706742751 [Eh]
	 Correlation Energy        =      -0.6663431929185163 [Eh]
	 Total Energy              =    -154.8118534397834765 [Eh]
	-----------------------------------------------------------
	 ================> DF-SCS-MP2 Energies <================== 
	-----------------------------------------------------------
	 SCS Same-Spin Scale       =       0.3333333333333333 [-]
	 SCS Opposite-Spin Scale   =       1.2000000000000000 [-]
	 SCS Same-Spin Energy      =      -0.0493780740814137 [Eh]
	 SCS Opposite-Spin Energy  =      -0.6218507648091300 [Eh]
	 SCS Correlation Energy    =      -0.6712288388905437 [Eh]
	 SCS Total Energy          =    -154.8167390857555290 [Eh]
	-----------------------------------------------------------


*** tstop() called on Moses-MBP.lan at Thu Feb 27 17:53:45 2025
Module time:
	user time   =      20.84 seconds =       0.35 minutes
	system time =       1.83 seconds =       0.03 minutes
	total time  =          3 seconds =       0.05 minutes
Total time:
	user time   =      93.20 seconds =       1.55 minutes
	system time =       6.75 seconds =       0.11 minutes
	total time  =         12 seconds =       0.20 minutes

    Psi4 stopped on: Thursday, 27 February 2025 05:53PM
    Psi4 wall time for execution: 0:00:12.40


    -----------------------------------------------------------------------
          Psi4: An Open-Source Ab Initio Electronic Structure Package
                               Psi4 1.9.1 release

                         Git: Rev {} zzzzzzz 


    D. G. A. Smith, L. A. Burns, A. C. Simmonett, R. M. Parrish,
    M. C. Schieber, R. Galvelis, P. Kraus, H. Kruse, R. Di Remigio,
    A. Alenaizan, A. M. James, S. Lehtola, J. P. Misiewicz, M. Scheurer,
    R. A. Shaw, J. B. Schriber, Y. Xie, Z. L. Glick, D. A. Sirianni,
    J. S. O'Brien, J. M. Waldrop, A. Kumar, E. G. Hohenstein,
    B. P. Pritchard, B. R. Brooks, H. F. Schaefer III, A. Yu. Sokolov,
    K. Patkowski, A. E. DePrince III, U. Bozkaya, R. A. King,
    F. A. Evangelista, J. M. Turney, T. D. Crawford, C. D. Sherrill,
    J. Chem. Phys. 152(18) 184108 (2020). https://doi.org/10.1063/5.0006002

                            Additional Code Authors
    E. T. Seidl, C. L. Janssen, E. F. Valeev, M. L. Leininger,
    J. F. Gonthier, R. M. Richard, H. R. McAlexander, M. Saitow, X. Wang,
    P. Verma, M. H. Lechner, A. Jiang, S. Behnle, A. G. Heide,
    M. F. Herbst, and D. L. Poole

             Previous Authors, Complete List of Code Contributors,
                       and Citations for Specific Modules
    https://github.com/psi4/psi4/blob/master/codemeta.json
    https://github.com/psi4/psi4/graphs/contributors
    http://psicode.org/psi4manual/master/introduction.html#citing-psifour

    -----------------------------------------------------------------------


    Psi4 started on: Thursday, 27 February 2025 05:53PM

    Process ID: 32398
    Host:       Moses-MBP.lan
    PSIDATADIR: /Users/moseschung/miniconda3/envs/psi4/share/psi4
    Memory:     9.3 GiB
    Threads:    10
    
  ==> Input QCSchema <==

--------------------------------------------------------------------------
{'driver': 'energy',
 'extras': {'psiapi': True, 'wfn_qcvars_only': True},
 'id': None,
 'keywords': {'SCF_TYPE': 'DF', 'function_kwargs': {}},
 'model': {'basis': 'aug-cc-pvtz', 'method': 'mp2'},
 'molecule': {'atom_labels': ['', '', '', '', '', '', '', '', '', '', '', '', '', '', '', '', '', ''],
              'atomic_numbers': [6, 6, 8, 1, 1, 1, 1, 1, 1, 6, 6, 8, 1, 1, 1, 1, 1, 1],
              'extras': {},
              'fix_com': True,
              'fix_orientation': True,
              'fix_symmetry': 'c1',
              'fragment_charges': [0.0, 0.0],
              'fragment_multiplicities': [1, 1],
              'fragments': [[0, 1, 2, 3, 4, 5, 6, 7, 8], [9, 10, 11, 12, 13, 14, 15, 16, 17]],
              'geometry': [3.6281154238844917, 2.1898184136327825, 0.8185840041213202, 4.8291799957984765,
                           -0.21076871367681338, -0.10689991719102389, 2.9252771449474633, -1.6947630810943441,
                           -1.2392616060878636, 3.645929872069182, -3.2512511221366878, -1.8238672802594975,
                           5.026546771793543, 3.423575247517187, 1.697499404524007, 2.1590461134058265,
                           1.7752068325289583, 2.2081865515722323, 2.7514355694882213, 3.205695494430276,
                           -0.7491630251765015, 5.714106615006244, -1.221638020241844, 1.47790378011518,
                           6.336457678807773, 0.22542920895811522, -1.4687782926553443, -3.0285431187992318,
                           -1.6898082191933936, 1.6526675419236456, -3.050254182254617, 0.4868501417017003,
                           -0.16840483339629977, -5.568042123865107, 0.8787320969685174, -0.9636960732952269,
                           -5.591550316865803, 2.2006219778920246, -2.2021091923527596, -1.1028951894225758,
                           -2.0787667681441273, 2.279863863510848, -3.7703702271567057, -3.388222251162122,
                           0.7462755236568018, -4.204839050386841, -1.2781294930362803, 3.297169577259188,
                           -1.7993839885780656, 0.0684704467037135, -1.7710834501232093, -2.2933395005114874,
                           2.1907160335423743, 0.7560718638911752],
              'mass_numbers': [12, 12, 16, 1, 1, 1, 1, 1, 1, 12, 12, 16, 1, 1, 1, 1, 1, 1],
              'masses': [12.0, 12.0, 15.99491461957, 1.00782503223, 1.00782503223, 1.00782503223, 1.00782503223,
                         1.00782503223, 1.00782503223, 12.0, 12.0, 15.99491461957, 1.00782503223, 1.00782503223,
                         1.00782503223, 1.00782503223, 1.00782503223, 1.00782503223],
              'molecular_charge': 0.0,
              'molecular_multiplicity': 1,
              'name': 'dimer',
              'provenance': {'creator': 'QCElemental',
                             'routine': 'qcelemental.molparse.from_string',
                             'version': '0.29.0'},
              'real': [True, True, True, True, True, True, True, True, True, False, False, False, False, False, False,
                       False, False, False],
              'schema_name': 'qcschema_molecule',
              'schema_version': 2,
              'symbols': ['C', 'C', 'O', 'H', 'H', 'H', 'H', 'H', 'H', 'C', 'C', 'O', 'H', 'H', 'H', 'H', 'H', 'H'],
              'validated': True},
 'protocols': {'stdout': True},
 'provenance': {'creator': 'QCElemental', 'routine': 'qcelemental.models.results', 'version': '0.29.0'},
 'schema_name': 'qcschema_input',
 'schema_version': 1}
--------------------------------------------------------------------------

Scratch directory: /tmp/
   => Libint2 <=

    Primary   basis highest AM E, G, H:  6, 6, 3
    Auxiliary basis highest AM E, G, H:  7, 7, 4
    Onebody   basis highest AM E, G, H:  -, -, -
    Solid Harmonics ordering:            Gaussian

*** tstart() called on Moses-MBP.lan
*** at Thu Feb 27 17:53:45 2025

   => Loading Basis Set <=

    Name: AUG-CC-PVTZ
    Role: ORBITAL
    Keyword: BASIS
    atoms 1-2, 10-11 entry C          line   239 file /Users/moseschung/miniconda3/envs/psi4/share/psi4/basis/aug-cc-pvtz.gbs 
    atoms 3, 12      entry O          line   331 file /Users/moseschung/miniconda3/envs/psi4/share/psi4/basis/aug-cc-pvtz.gbs 
    atoms 4-9, 13-18 entry H          line    40 file /Users/moseschung/miniconda3/envs/psi4/share/psi4/basis/aug-cc-pvtz.gbs 


         ---------------------------------------------------------
                                   SCF
               by Justin Turney, Rob Parrish, Andy Simmonett
                          and Daniel G. A. Smith
                              RHF Reference
                       10 Threads,   9536 MiB Core
         ---------------------------------------------------------

  ==> Geometry <==

    Molecular point group: c1
    Full point group: C1

    Geometry (in Bohr), charge = 0, multiplicity = 1:

       Center              X                  Y                   Z               Mass       
    ------------   -----------------  -----------------  -----------------  -----------------
         C            3.628115423884     2.189818413633     0.818584004121    12.000000000000
         C            4.829179995798    -0.210768713677    -0.106899917191    12.000000000000
         O            2.925277144947    -1.694763081094    -1.239261606088    15.994914619570
         H            3.645929872069    -3.251251122137    -1.823867280259     1.007825032230
         H            5.026546771794     3.423575247517     1.697499404524     1.007825032230
         H            2.159046113406     1.775206832529     2.208186551572     1.007825032230
         H            2.751435569488     3.205695494430    -0.749163025177     1.007825032230
         H            5.714106615006    -1.221638020242     1.477903780115     1.007825032230
         H            6.336457678808     0.225429208958    -1.468778292655     1.007825032230
      Gh(C)          -3.028543118799    -1.689808219193     1.652667541924    12.000000000000
      Gh(C)          -3.050254182255     0.486850141702    -0.168404833396    12.000000000000
      Gh(O)          -5.568042123865     0.878732096969    -0.963696073295    15.994914619570
      Gh(H)          -5.591550316866     2.200621977892    -2.202109192353     1.007825032230
      Gh(H)          -1.102895189423    -2.078766768144     2.279863863511     1.007825032230
      Gh(H)          -3.770370227157    -3.388222251162     0.746275523657     1.007825032230
      Gh(H)          -4.204839050387    -1.278129493036     3.297169577259     1.007825032230
      Gh(H)          -1.799383988578     0.068470446704    -1.771083450123     1.007825032230
      Gh(H)          -2.293339500511     2.190716033542     0.756071863891     1.007825032230

  Running in c1 symmetry.

  Rotational constants: A =      0.17688  B =      0.03733  C =      0.03523 [cm^-1]
  Rotational constants: A =   5302.65908  B =   1119.18895  C =   1056.16994 [MHz]
  Nuclear repulsion =   82.273752271763101

  Charge       = 0
  Multiplicity = 1
  Electrons    = 26
  Nalpha       = 13
  Nbeta        = 13

  ==> Algorithm <==

  SCF Algorithm Type is DF.
  DIIS enabled.
  MOM disabled.
  Fractional occupation disabled.
  Guess Type is SAD.
  Energy threshold   = 1.00e-08
  Density threshold  = 1.00e-08
  Integral threshold = 1.00e-12

  ==> Primary Basis <==

  Basis Set: AUG-CC-PVTZ
    Blend: AUG-CC-PVTZ
    Number of shells: 192
    Number of basis functions: 552
    Number of Cartesian functions: 630
    Spherical Harmonics?: true
    Max angular momentum: 3

   => Loading Basis Set <=

    Name: (AUG-CC-PVTZ AUX)
    Role: JKFIT
    Keyword: DF_BASIS_SCF
    atoms 1-2, 10-11 entry C          line   162 file /Users/moseschung/miniconda3/envs/psi4/share/psi4/basis/aug-cc-pvtz-jkfit.gbs 
    atoms 3, 12      entry O          line   286 file /Users/moseschung/miniconda3/envs/psi4/share/psi4/basis/aug-cc-pvtz-jkfit.gbs 
    atoms 4-9, 13-18 entry H          line    70 file /Users/moseschung/miniconda3/envs/psi4/share/psi4/basis/aug-cc-pvtz-jkfit.gbs 

  ==> Integral Setup <==

  DFHelper Memory: AOs need 2.599 GiB; user supplied 6.985 GiB. 
  Using in-core AOs.

  ==> MemDFJK: Density-Fitted J/K Matrices <==

    J tasked:                   Yes
    K tasked:                   Yes
    wK tasked:                   No
    OpenMP threads:              10
    Memory [MiB]:              7152
    Algorithm:                 Core
    Schwarz Cutoff:           1E-12
    Mask sparsity (%):       6.1844
    Fitting Condition:        1E-10

   => Auxiliary Basis Set <=

  Basis Set: (AUG-CC-PVTZ AUX)
    Blend: AUG-CC-PVTZ-JKFIT
    Number of shells: 348
    Number of basis functions: 1176
    Number of Cartesian functions: 1446
    Spherical Harmonics?: true
    Max angular momentum: 4

  Minimum eigenvalue in the overlap matrix is 8.8611874497E-06.
  Reciprocal condition number of the overlap matrix is 4.8007663603E-07.
    Using symmetric orthogonalization.

  ==> Pre-Iterations <==

  SCF Guess: Superposition of Atomic Densities via on-the-fly atomic UHF (no occupation information).

   -------------------------
    Irrep   Nso     Nmo    
   -------------------------
     A        552     552 
   -------------------------
    Total     552     552
   -------------------------

  ==> Iterations <==

                           Total Energy        Delta E     RMS |[F,P]|

   @DF-RHF iter SAD:  -153.45057802908184   -1.53451e+02   0.00000e+00 
   @DF-RHF iter   1:  -153.99874446268993   -5.48166e-01   9.60862e-04 ADIIS/DIIS
   @DF-RHF iter   2:  -154.11087537020205   -1.12131e-01   5.34900e-04 ADIIS/DIIS
   @DF-RHF iter   3:  -154.14388320614040   -3.30078e-02   8.43885e-05 DIIS
   @DF-RHF iter   4:  -154.14547947629717   -1.59627e-03   3.23291e-05 DIIS
   @DF-RHF iter   5:  -154.14566317119383   -1.83695e-04   5.75907e-06 DIIS
   @DF-RHF iter   6:  -154.14567276484090   -9.59365e-06   1.27397e-06 DIIS
   @DF-RHF iter   7:  -154.14567331927094   -5.54430e-07   3.91322e-07 DIIS
   @DF-RHF iter   8:  -154.14567336293885   -4.36679e-08   1.04948e-07 DIIS
   @DF-RHF iter   9:  -154.14567336712051   -4.18166e-09   2.53063e-08 DIIS
   @DF-RHF iter  10:  -154.14567336738497   -2.64464e-10   4.81958e-09 DIIS
  Energy and wave function converged.


  ==> Post-Iterations <==

    Orbital Energies [Eh]
    ---------------------

    Doubly Occupied:                                                      

       1A    -20.555762     2A    -11.273636     3A    -11.210762  
       4A     -1.361993     5A     -1.014019     6A     -0.833316  
       7A     -0.703682     8A     -0.645620     9A     -0.573855  
      10A     -0.533635    11A     -0.524006    12A     -0.488974  
      13A     -0.440087  

    Virtual:                                                              

      14A      0.025171    15A      0.032839    16A      0.036202  
      17A      0.038136    18A      0.051043    19A      0.052726  
      20A      0.054710    21A      0.061605    22A      0.066759  
      23A      0.076525    24A      0.079918    25A      0.086186  
      26A      0.100277    27A      0.111474    28A      0.119406  
      29A      0.119843    30A      0.123071    31A      0.125512  
      32A      0.136936    33A      0.138562    34A      0.142567  
      35A      0.147654    36A      0.157155    37A      0.159422  
      38A      0.162881    39A      0.172683    40A      0.183790  
      41A      0.191035    42A      0.194004    43A      0.205460  
      44A      0.213863    45A      0.216924    46A      0.226237  
      47A      0.236171    48A      0.246315    49A      0.261131  
      50A      0.265677    51A      0.267369    52A      0.272710  
      53A      0.285120    54A      0.290157    55A      0.298170  
      56A      0.302956    57A      0.311671    58A      0.314283  
      59A      0.315104    60A      0.317278    61A      0.325637  
      62A      0.336223    63A      0.344995    64A      0.353506  
      65A      0.356528    66A      0.358165    67A      0.363201  
      68A      0.365469    69A      0.368477    70A      0.373801  
      71A      0.376646    72A      0.387892    73A      0.388332  
      74A      0.398674    75A      0.405109    76A      0.410114  
      77A      0.415695    78A      0.431106    79A      0.435862  
      80A      0.438093    81A      0.440931    82A      0.447154  
      83A      0.452164    84A      0.464764    85A      0.467177  
      86A      0.474524    87A      0.480216    88A      0.486185  
      89A      0.486352    90A      0.487174    91A      0.498395  
      92A      0.500792    93A      0.514199    94A      0.515757  
      95A      0.521379    96A      0.525178    97A      0.530982  
      98A      0.537462    99A      0.542883   100A      0.548469  
     101A      0.550989   102A      0.562799   103A      0.571867  
     104A      0.577532   105A      0.581457   106A      0.583609  
     107A      0.589892   108A      0.609846   109A      0.616700  
     110A      0.625365   111A      0.632958   112A      0.636261  
     113A      0.648697   114A      0.655866   115A      0.661345  
     116A      0.662797   117A      0.669252   118A      0.683552  
     119A      0.689271   120A      0.707286   121A      0.715223  
     122A      0.722036   123A      0.729655   124A      0.732375  
     125A      0.737158   126A      0.755835   127A      0.774380  
     128A      0.783564   129A      0.799642   130A      0.808176  
     131A      0.824081   132A      0.831491   133A      0.848526  
     134A      0.853602   135A      0.865640   136A      0.876635  
     137A      0.883441   138A      0.896595   139A      0.901287  
     140A      0.910568   141A      0.913334   142A      0.918069  
     143A      0.922781   144A      0.925125   145A      0.941116  
     146A      0.949508   147A      0.958692   148A      0.967010  
     149A      0.971105   150A      0.976816   151A      0.989788  
     152A      0.996583   153A      1.004912   154A      1.012681  
     155A      1.017805   156A      1.023705   157A      1.032960  
     158A      1.036038   159A      1.040565   160A      1.044451  
     161A      1.055099   162A      1.056967   163A      1.066866  
     164A      1.075660   165A      1.086055   166A      1.087704  
     167A      1.091988   168A      1.102806   169A      1.104887  
     170A      1.109192   171A      1.112279   172A      1.126565  
     173A      1.130696   174A      1.135780   175A      1.145357  
     176A      1.156674   177A      1.163302   178A      1.165724  
     179A      1.171074   180A      1.178606   181A      1.180273  
     182A      1.195235   183A      1.216609   184A      1.219792  
     185A      1.221787   186A      1.224545   187A      1.235988  
     188A      1.241830   189A      1.250356   190A      1.253150  
     191A      1.259208   192A      1.267268   193A      1.271194  
     194A      1.273865   195A      1.287579   196A      1.294135  
     197A      1.307688   198A      1.323907   199A      1.330227  
     200A      1.337723   201A      1.346790   202A      1.356371  
     203A      1.364425   204A      1.376112   205A      1.390169  
     206A      1.393569   207A      1.394741   208A      1.403068  
     209A      1.420737   210A      1.431468   211A      1.444204  
     212A      1.450492   213A      1.461005   214A      1.463997  
     215A      1.481263   216A      1.486246   217A      1.498381  
     218A      1.505133   219A      1.514731   220A      1.526463  
     221A      1.535691   222A      1.541961   223A      1.549429  
     224A      1.575070   225A      1.586285   226A      1.594228  
     227A      1.606575   228A      1.607090   229A      1.611221  
     230A      1.633653   231A      1.647461   232A      1.649899  
     233A      1.663758   234A      1.668073   235A      1.671270  
     236A      1.687717   237A      1.704489   238A      1.712544  
     239A      1.736250   240A      1.736486   241A      1.738959  
     242A      1.757083   243A      1.768344   244A      1.770885  
     245A      1.774418   246A      1.799807   247A      1.809438  
     248A      1.815125   249A      1.836909   250A      1.844139  
     251A      1.855249   252A      1.860510   253A      1.872059  
     254A      1.880300   255A      1.895991   256A      1.912683  
     257A      1.932377   258A      1.935721   259A      1.949389  
     260A      1.959945   261A      1.973315   262A      1.981914  
     263A      1.994925   264A      2.001414   265A      2.010500  
     266A      2.020209   267A      2.031909   268A      2.042123  
     269A      2.060868   270A      2.066577   271A      2.086124  
     272A      2.096878   273A      2.104995   274A      2.117322  
     275A      2.127097   276A      2.142700   277A      2.144777  
     278A      2.152136   279A      2.170567   280A      2.185913  
     281A      2.208628   282A      2.216499   283A      2.229685  
     284A      2.235723   285A      2.240490   286A      2.259438  
     287A      2.270294   288A      2.274520   289A      2.284973  
     290A      2.293186   291A      2.314156   292A      2.342866  
     293A      2.353520   294A      2.381479   295A      2.392331  
     296A      2.423812   297A      2.428508   298A      2.452998  
     299A      2.469663   300A      2.487610   301A      2.495154  
     302A      2.508414   303A      2.542954   304A      2.568519  
     305A      2.579608   306A      2.601425   307A      2.606652  
     308A      2.629573   309A      2.641721   310A      2.677733  
     311A      2.708484   312A      2.725553   313A      2.730367  
     314A      2.744664   315A      2.761013   316A      2.780389  
     317A      2.796860   318A      2.814438   319A      2.823115  
     320A      2.840842   321A      2.861949   322A      2.876367  
     323A      2.925626   324A      2.943713   325A      2.976456  
     326A      2.989124   327A      3.003046   328A      3.028013  
     329A      3.047374   330A      3.083975   331A      3.103360  
     332A      3.120454   333A      3.154494   334A      3.187598  
     335A      3.236096   336A      3.249125   337A      3.290600  
     338A      3.316087   339A      3.358539   340A      3.375856  
     341A      3.393063   342A      3.439356   343A      3.483341  
     344A      3.493116   345A      3.514932   346A      3.548773  
     347A      3.589500   348A      3.603210   349A      3.641175  
     350A      3.670582   351A      3.680558   352A      3.692289  
     353A      3.708729   354A      3.731658   355A      3.745301  
     356A      3.776768   357A      3.788482   358A      3.799721  
     359A      3.825843   360A      3.870924   361A      3.894019  
     362A      3.905784   363A      3.922819   364A      3.940152  
     365A      4.005431   366A      4.016386   367A      4.023449  
     368A      4.037592   369A      4.060109   370A      4.084176  
     371A      4.104729   372A      4.113615   373A      4.118307  
     374A      4.140514   375A      4.152914   376A      4.174162  
     377A      4.185423   378A      4.202142   379A      4.211479  
     380A      4.224481   381A      4.250383   382A      4.264323  
     383A      4.276471   384A      4.294965   385A      4.300194  
     386A      4.317667   387A      4.337946   388A      4.341654  
     389A      4.353137   390A      4.372117   391A      4.388830  
     392A      4.430679   393A      4.457372   394A      4.483458  
     395A      4.488441   396A      4.492225   397A      4.499381  
     398A      4.536761   399A      4.552916   400A      4.566421  
     401A      4.576754   402A      4.585845   403A      4.597204  
     404A      4.611640   405A      4.620393   406A      4.630449  
     407A      4.662526   408A      4.671529   409A      4.684087  
     410A      4.700547   411A      4.728217   412A      4.739674  
     413A      4.751736   414A      4.772999   415A      4.775430  
     416A      4.795516   417A      4.825376   418A      4.839190  
     419A      4.848194   420A      4.877263   421A      4.886255  
     422A      4.909029   423A      4.915316   424A      4.934412  
     425A      4.935839   426A      4.955047   427A      4.975682  
     428A      5.015648   429A      5.017857   430A      5.046527  
     431A      5.058340   432A      5.067303   433A      5.075886  
     434A      5.087095   435A      5.105182   436A      5.142884  
     437A      5.146979   438A      5.159094   439A      5.176539  
     440A      5.190721   441A      5.219569   442A      5.233128  
     443A      5.234581   444A      5.257913   445A      5.295102  
     446A      5.314202   447A      5.325257   448A      5.359512  
     449A      5.372553   450A      5.385762   451A      5.401237  
     452A      5.411758   453A      5.471710   454A      5.475710  
     455A      5.501625   456A      5.516249   457A      5.531780  
     458A      5.549453   459A      5.551589   460A      5.578853  
     461A      5.586246   462A      5.604133   463A      5.611670  
     464A      5.639875   465A      5.645751   466A      5.672883  
     467A      5.679738   468A      5.720210   469A      5.754273  
     470A      5.768015   471A      5.777140   472A      5.799442  
     473A      5.833057   474A      5.860739   475A      5.867820  
     476A      5.887806   477A      5.947355   478A      5.998138  
     479A      6.045163   480A      6.047610   481A      6.059409  
     482A      6.075612   483A      6.120815   484A      6.151729  
     485A      6.175581   486A      6.210316   487A      6.228526  
     488A      6.269239   489A      6.275831   490A      6.306675  
     491A      6.324001   492A      6.341186   493A      6.402075  
     494A      6.480133   495A      6.568434   496A      6.716998  
     497A      6.750264   498A      6.824628   499A      6.849361  
     500A      6.863826   501A      6.890944   502A      6.925026  
     503A      6.985089   504A      7.027904   505A      7.058747  
     506A      7.087691   507A      7.162274   508A      7.187804  
     509A      7.208598   510A      7.289479   511A      7.353303  
     512A      7.398486   513A      7.549814   514A      7.563942  
     515A      7.703481   516A      7.753293   517A      7.833396  
     518A      7.859576   519A      7.872174   520A      7.891185  
     521A      7.894524   522A      7.925885   523A      7.962164  
     524A      8.040487   525A      8.105873   526A      8.171746  
     527A      8.203760   528A      8.282636   529A      8.350659  
     530A      8.399524   531A      8.411915   532A      8.597222  
     533A      8.665937   534A      8.893346   535A      9.097165  
     536A      9.953989   537A     10.091500   538A     10.369042  
     539A     10.397023   540A     10.445699   541A     10.833222  
     542A     11.146257   543A     11.930724   544A     12.364672  
     545A     13.325965   546A     14.136499   547A     16.011516  
     548A     18.138265   549A     18.500557   550A     53.304204  
     551A     54.580836   552A     66.322632  

    Final Occupation by Irrep:
              A 
    DOCC [    13 ]
    NA   [    13 ]
    NB   [    13 ]

  @DF-RHF Final Energy:  -154.14567336738497

   => Energetics <=

    Nuclear Repulsion Energy =             82.2737522717631009
    One-Electron Energy =                -372.5201565610261127
    Two-Electron Energy =                 136.1007309218780392
    Total Energy =                       -154.1456733673849726

Computation Completed


Properties will be evaluated at   0.000000,   0.000000,   0.000000 [a0]

Properties computed using the SCF density matrix


 Multipole Moments:

 ------------------------------------------------------------------------------------
     Multipole            Electronic (a.u.)      Nuclear  (a.u.)        Total (a.u.)
 ------------------------------------------------------------------------------------

 L = 1.  Multiply by 2.5417464519 to convert [e a0] to [Debye]
 Dipole X            :        -99.1466866           99.7795123            0.6328257
 Dipole Y            :         -2.6348472            2.4732112           -0.1616360
 Dipole Z            :          4.3659851           -4.3022072            0.0637779
 Magnitude           :                                                    0.6562486

 ------------------------------------------------------------------------------------

*** tstop() called on Moses-MBP.lan at Thu Feb 27 17:55:04 2025
Module time:
	user time   =      69.69 seconds =       1.16 minutes
	system time =       5.57 seconds =       0.09 minutes
	total time  =         79 seconds =       1.32 minutes
Total time:
	user time   =     163.20 seconds =       2.72 minutes
	system time =      12.38 seconds =       0.21 minutes
	total time  =         91 seconds =       1.52 minutes

*** tstart() called on Moses-MBP.lan
*** at Thu Feb 27 17:55:04 2025


  //>>>>>>>>>>>>>>>>>>>>>>>>>>>>>>>>>>>//
  //               DFMP2               //
  //<<<<<<<<<<<<<<<<<<<<<<<<<<<<<<<<<<<//

   => Loading Basis Set <=

    Name: (AUG-CC-PVTZ AUX)
    Role: RIFIT
    Keyword: DF_BASIS_MP2
    atoms 1-2, 10-11 entry C          line   148 file /Users/moseschung/miniconda3/envs/psi4/share/psi4/basis/aug-cc-pvtz-ri.gbs 
    atoms 3, 12      entry O          line   264 file /Users/moseschung/miniconda3/envs/psi4/share/psi4/basis/aug-cc-pvtz-ri.gbs 
    atoms 4-9, 13-18 entry H          line    30 file /Users/moseschung/miniconda3/envs/psi4/share/psi4/basis/aug-cc-pvtz-ri.gbs 

	 --------------------------------------------------------
	                          DF-MP2                         
	      2nd-Order Density-Fitted Moller-Plesset Theory     
	              RMP2 Wavefunction,  10 Threads             
	                                                         
	        Rob Parrish, Justin Turney, Andy Simmonett,      
	           Ed Hohenstein, and C. David Sherrill          
	 --------------------------------------------------------

   => Auxiliary Basis Set <=

  Basis Set: (AUG-CC-PVTZ AUX)
    Blend: AUG-CC-PVTZ-RI
    Number of shells: 336
    Number of basis functions: 1188
    Number of Cartesian functions: 1476
    Spherical Harmonics?: true
    Max angular momentum: 4

	 --------------------------------------------------------
	                 NBF =   552, NAUX =  1188
	 --------------------------------------------------------
	   CLASS    FOCC     OCC    AOCC    AVIR     VIR    FVIR
	   PAIRS       0      13      13     539     539       0
	 --------------------------------------------------------

	-----------------------------------------------------------
	 ==================> DF-MP2 Energies <==================== 
	-----------------------------------------------------------
	 Reference Energy          =    -154.1456733673849726 [Eh]
	 Singles Energy            =      -0.0000000000000000 [Eh]
	 Same-Spin Energy          =      -0.1481209119041912 [Eh]
	 Opposite-Spin Energy      =      -0.5180927686403141 [Eh]
	 Correlation Energy        =      -0.6662136805445054 [Eh]
	 Total Energy              =    -154.8118870479294742 [Eh]
	-----------------------------------------------------------
	 ================> DF-SCS-MP2 Energies <================== 
	-----------------------------------------------------------
	 SCS Same-Spin Scale       =       0.3333333333333333 [-]
	 SCS Opposite-Spin Scale   =       1.2000000000000000 [-]
	 SCS Same-Spin Energy      =      -0.0493736373013971 [Eh]
	 SCS Opposite-Spin Energy  =      -0.6217113223683769 [Eh]
	 SCS Correlation Energy    =      -0.6710849596697740 [Eh]
	 SCS Total Energy          =    -154.8167583270547425 [Eh]
	-----------------------------------------------------------


*** tstop() called on Moses-MBP.lan at Thu Feb 27 17:57:41 2025
Module time:
	user time   =      29.22 seconds =       0.49 minutes
	system time =       1.76 seconds =       0.03 minutes
	total time  =        157 seconds =       2.62 minutes
Total time:
	user time   =     192.43 seconds =       3.21 minutes
	system time =      14.14 seconds =       0.24 minutes
	total time  =        248 seconds =       4.13 minutes

    Psi4 stopped on: Thursday, 27 February 2025 05:57PM
    Psi4 wall time for execution: 0:03:55.24


    -----------------------------------------------------------------------
          Psi4: An Open-Source Ab Initio Electronic Structure Package
                               Psi4 1.9.1 release

                         Git: Rev {} zzzzzzz 


    D. G. A. Smith, L. A. Burns, A. C. Simmonett, R. M. Parrish,
    M. C. Schieber, R. Galvelis, P. Kraus, H. Kruse, R. Di Remigio,
    A. Alenaizan, A. M. James, S. Lehtola, J. P. Misiewicz, M. Scheurer,
    R. A. Shaw, J. B. Schriber, Y. Xie, Z. L. Glick, D. A. Sirianni,
    J. S. O'Brien, J. M. Waldrop, A. Kumar, E. G. Hohenstein,
    B. P. Pritchard, B. R. Brooks, H. F. Schaefer III, A. Yu. Sokolov,
    K. Patkowski, A. E. DePrince III, U. Bozkaya, R. A. King,
    F. A. Evangelista, J. M. Turney, T. D. Crawford, C. D. Sherrill,
    J. Chem. Phys. 152(18) 184108 (2020). https://doi.org/10.1063/5.0006002

                            Additional Code Authors
    E. T. Seidl, C. L. Janssen, E. F. Valeev, M. L. Leininger,
    J. F. Gonthier, R. M. Richard, H. R. McAlexander, M. Saitow, X. Wang,
    P. Verma, M. H. Lechner, A. Jiang, S. Behnle, A. G. Heide,
    M. F. Herbst, and D. L. Poole

             Previous Authors, Complete List of Code Contributors,
                       and Citations for Specific Modules
    https://github.com/psi4/psi4/blob/master/codemeta.json
    https://github.com/psi4/psi4/graphs/contributors
    http://psicode.org/psi4manual/master/introduction.html#citing-psifour

    -----------------------------------------------------------------------


    Psi4 started on: Thursday, 27 February 2025 05:53PM

    Process ID: 32398
    Host:       Moses-MBP.lan
    PSIDATADIR: /Users/moseschung/miniconda3/envs/psi4/share/psi4
    Memory:     9.3 GiB
    Threads:    10
    
  ==> Input QCSchema <==

--------------------------------------------------------------------------
{'driver': 'energy',
 'extras': {'psiapi': True, 'wfn_qcvars_only': True},
 'id': None,
 'keywords': {'SCF_TYPE': 'DF', 'function_kwargs': {}},
 'model': {'basis': 'aug-cc-pvtz', 'method': 'mp2'},
 'molecule': {'atom_labels': ['', '', '', '', '', '', '', '', '', '', '', '', '', '', '', '', '', ''],
              'atomic_numbers': [6, 6, 8, 1, 1, 1, 1, 1, 1, 6, 6, 8, 1, 1, 1, 1, 1, 1],
              'extras': {},
              'fix_com': True,
              'fix_orientation': True,
              'fix_symmetry': 'c1',
              'fragment_charges': [0.0, 0.0],
              'fragment_multiplicities': [1, 1],
              'fragments': [[0, 1, 2, 3, 4, 5, 6, 7, 8], [9, 10, 11, 12, 13, 14, 15, 16, 17]],
              'geometry': [3.6281154238844917, 2.1898184136327825, 0.8185840041213202, 4.8291799957984765,
                           -0.21076871367681338, -0.10689991719102389, 2.9252771449474633, -1.6947630810943441,
                           -1.2392616060878636, 3.645929872069182, -3.2512511221366878, -1.8238672802594975,
                           5.026546771793543, 3.423575247517187, 1.697499404524007, 2.1590461134058265,
                           1.7752068325289583, 2.2081865515722323, 2.7514355694882213, 3.205695494430276,
                           -0.7491630251765015, 5.714106615006244, -1.221638020241844, 1.47790378011518,
                           6.336457678807773, 0.22542920895811522, -1.4687782926553443, -3.0285431187992318,
                           -1.6898082191933936, 1.6526675419236456, -3.050254182254617, 0.4868501417017003,
                           -0.16840483339629977, -5.568042123865107, 0.8787320969685174, -0.9636960732952269,
                           -5.591550316865803, 2.2006219778920246, -2.2021091923527596, -1.1028951894225758,
                           -2.0787667681441273, 2.279863863510848, -3.7703702271567057, -3.388222251162122,
                           0.7462755236568018, -4.204839050386841, -1.2781294930362803, 3.297169577259188,
                           -1.7993839885780656, 0.0684704467037135, -1.7710834501232093, -2.2933395005114874,
                           2.1907160335423743, 0.7560718638911752],
              'mass_numbers': [12, 12, 16, 1, 1, 1, 1, 1, 1, 12, 12, 16, 1, 1, 1, 1, 1, 1],
              'masses': [12.0, 12.0, 15.99491461957, 1.00782503223, 1.00782503223, 1.00782503223, 1.00782503223,
                         1.00782503223, 1.00782503223, 12.0, 12.0, 15.99491461957, 1.00782503223, 1.00782503223,
                         1.00782503223, 1.00782503223, 1.00782503223, 1.00782503223],
              'molecular_charge': 0.0,
              'molecular_multiplicity': 1,
              'name': 'dimer',
              'provenance': {'creator': 'QCElemental',
                             'routine': 'qcelemental.molparse.from_string',
                             'version': '0.29.0'},
              'real': [True, True, True, True, True, True, True, True, True, True, True, True, True, True, True, True,
                       True, True],
              'schema_name': 'qcschema_molecule',
              'schema_version': 2,
              'symbols': ['C', 'C', 'O', 'H', 'H', 'H', 'H', 'H', 'H', 'C', 'C', 'O', 'H', 'H', 'H', 'H', 'H', 'H'],
              'validated': True},
 'protocols': {'stdout': True},
 'provenance': {'creator': 'QCElemental', 'routine': 'qcelemental.models.results', 'version': '0.29.0'},
 'schema_name': 'qcschema_input',
 'schema_version': 1}
--------------------------------------------------------------------------

Scratch directory: /tmp/
   => Libint2 <=

    Primary   basis highest AM E, G, H:  6, 6, 3
    Auxiliary basis highest AM E, G, H:  7, 7, 4
    Onebody   basis highest AM E, G, H:  -, -, -
    Solid Harmonics ordering:            Gaussian

*** tstart() called on Moses-MBP.lan
*** at Thu Feb 27 17:57:41 2025

   => Loading Basis Set <=

    Name: AUG-CC-PVTZ
    Role: ORBITAL
    Keyword: BASIS
    atoms 1-2, 10-11 entry C          line   239 file /Users/moseschung/miniconda3/envs/psi4/share/psi4/basis/aug-cc-pvtz.gbs 
    atoms 3, 12      entry O          line   331 file /Users/moseschung/miniconda3/envs/psi4/share/psi4/basis/aug-cc-pvtz.gbs 
    atoms 4-9, 13-18 entry H          line    40 file /Users/moseschung/miniconda3/envs/psi4/share/psi4/basis/aug-cc-pvtz.gbs 


         ---------------------------------------------------------
                                   SCF
               by Justin Turney, Rob Parrish, Andy Simmonett
                          and Daniel G. A. Smith
                              RHF Reference
                       10 Threads,   9536 MiB Core
         ---------------------------------------------------------

  ==> Geometry <==

    Molecular point group: c1
    Full point group: C1

    Geometry (in Bohr), charge = 0, multiplicity = 1:

       Center              X                  Y                   Z               Mass       
    ------------   -----------------  -----------------  -----------------  -----------------
         C            3.628115423884     2.189818413633     0.818584004121    12.000000000000
         C            4.829179995798    -0.210768713677    -0.106899917191    12.000000000000
         O            2.925277144947    -1.694763081094    -1.239261606088    15.994914619570
         H            3.645929872069    -3.251251122137    -1.823867280259     1.007825032230
         H            5.026546771794     3.423575247517     1.697499404524     1.007825032230
         H            2.159046113406     1.775206832529     2.208186551572     1.007825032230
         H            2.751435569488     3.205695494430    -0.749163025177     1.007825032230
         H            5.714106615006    -1.221638020242     1.477903780115     1.007825032230
         H            6.336457678808     0.225429208958    -1.468778292655     1.007825032230
         C           -3.028543118799    -1.689808219193     1.652667541924    12.000000000000
         C           -3.050254182255     0.486850141702    -0.168404833396    12.000000000000
         O           -5.568042123865     0.878732096969    -0.963696073295    15.994914619570
         H           -5.591550316866     2.200621977892    -2.202109192353     1.007825032230
         H           -1.102895189423    -2.078766768144     2.279863863511     1.007825032230
         H           -3.770370227157    -3.388222251162     0.746275523657     1.007825032230
         H           -4.204839050387    -1.278129493036     3.297169577259     1.007825032230
         H           -1.799383988578     0.068470446704    -1.771083450123     1.007825032230
         H           -2.293339500511     2.190716033542     0.756071863891     1.007825032230

  Running in c1 symmetry.

  Rotational constants: A =      0.17688  B =      0.03733  C =      0.03523 [cm^-1]
  Rotational constants: A =   5302.65908  B =   1119.18895  C =   1056.16994 [MHz]
  Nuclear repulsion =  249.486919827041419

  Charge       = 0
  Multiplicity = 1
  Electrons    = 52
  Nalpha       = 26
  Nbeta        = 26

  ==> Algorithm <==

  SCF Algorithm Type is DF.
  DIIS enabled.
  MOM disabled.
  Fractional occupation disabled.
  Guess Type is SAD.
  Energy threshold   = 1.00e-08
  Density threshold  = 1.00e-08
  Integral threshold = 1.00e-12

  ==> Primary Basis <==

  Basis Set: AUG-CC-PVTZ
    Blend: AUG-CC-PVTZ
    Number of shells: 192
    Number of basis functions: 552
    Number of Cartesian functions: 630
    Spherical Harmonics?: true
    Max angular momentum: 3

   => Loading Basis Set <=

    Name: (AUG-CC-PVTZ AUX)
    Role: JKFIT
    Keyword: DF_BASIS_SCF
    atoms 1-2, 10-11 entry C          line   162 file /Users/moseschung/miniconda3/envs/psi4/share/psi4/basis/aug-cc-pvtz-jkfit.gbs 
    atoms 3, 12      entry O          line   286 file /Users/moseschung/miniconda3/envs/psi4/share/psi4/basis/aug-cc-pvtz-jkfit.gbs 
    atoms 4-9, 13-18 entry H          line    70 file /Users/moseschung/miniconda3/envs/psi4/share/psi4/basis/aug-cc-pvtz-jkfit.gbs 

  ==> Integral Setup <==

  DFHelper Memory: AOs need 2.599 GiB; user supplied 6.985 GiB. 
  Using in-core AOs.

  ==> MemDFJK: Density-Fitted J/K Matrices <==

    J tasked:                   Yes
    K tasked:                   Yes
    wK tasked:                   No
    OpenMP threads:              10
    Memory [MiB]:              7152
    Algorithm:                 Core
    Schwarz Cutoff:           1E-12
    Mask sparsity (%):       6.1844
    Fitting Condition:        1E-10

   => Auxiliary Basis Set <=

  Basis Set: (AUG-CC-PVTZ AUX)
    Blend: AUG-CC-PVTZ-JKFIT
    Number of shells: 348
    Number of basis functions: 1176
    Number of Cartesian functions: 1446
    Spherical Harmonics?: true
    Max angular momentum: 4

  Minimum eigenvalue in the overlap matrix is 8.8611874497E-06.
  Reciprocal condition number of the overlap matrix is 4.8007663603E-07.
    Using symmetric orthogonalization.

  ==> Pre-Iterations <==

  SCF Guess: Superposition of Atomic Densities via on-the-fly atomic UHF (no occupation information).

   -------------------------
    Irrep   Nso     Nmo    
   -------------------------
     A        552     552 
   -------------------------
    Total     552     552
   -------------------------

  ==> Iterations <==

                           Total Energy        Delta E     RMS |[F,P]|

   @DF-RHF iter SAD:  -307.02096065016900   -3.07021e+02   0.00000e+00 
   @DF-RHF iter   1:  -307.99850244072093   -9.77542e-01   1.34660e-03 ADIIS/DIIS
   @DF-RHF iter   2:  -308.22303778908588   -2.24535e-01   7.36385e-04 ADIIS/DIIS
   @DF-RHF iter   3:  -308.28597195526504   -6.29342e-02   1.18904e-04 ADIIS/DIIS
   @DF-RHF iter   4:  -308.28916649801755   -3.19454e-03   4.44881e-05 DIIS
   @DF-RHF iter   5:  -308.28950958064070   -3.43083e-04   8.13347e-06 DIIS
   @DF-RHF iter   6:  -308.28952870130138   -1.91207e-05   1.79358e-06 DIIS
   @DF-RHF iter   7:  -308.28952979718912   -1.09589e-06   5.57851e-07 DIIS
   @DF-RHF iter   8:  -308.28952988537111   -8.81820e-08   1.47911e-07 DIIS
   @DF-RHF iter   9:  -308.28952989367775   -8.30664e-09   3.65813e-08 DIIS
   @DF-RHF iter  10:  -308.28952989419747   -5.19719e-10   1.09339e-08 DIIS
   @DF-RHF iter  11:  -308.28952989422248   -2.50111e-11   4.20109e-09 DIIS
  Energy and wave function converged.


  ==> Post-Iterations <==

    Orbital Energies [Eh]
    ---------------------

    Doubly Occupied:                                                      

       1A    -20.562282     2A    -20.543972     3A    -11.279577  
       4A    -11.257313     5A    -11.216820     6A    -11.196684  
       7A     -1.369372     8A     -1.349610     9A     -1.020604  
      10A     -1.000210    11A     -0.840124    12A     -0.818549  
      13A     -0.711345    14A     -0.690127    15A     -0.652360  
      16A     -0.631799    17A     -0.581374    18A     -0.561873  
      19A     -0.540105    20A     -0.531015    21A     -0.520186  
      22A     -0.511272    23A     -0.496381    24A     -0.473627  
      25A     -0.446460    26A     -0.425866  

    Virtual:                                                              

      27A      0.025831    28A      0.033680    29A      0.036314  
      30A      0.039327    31A      0.051662    32A      0.054142  
      33A      0.056328    34A      0.060744    35A      0.065121  
      36A      0.077428    37A      0.080617    38A      0.090843  
      39A      0.111181    40A      0.117733    41A      0.120231  
      42A      0.122268    43A      0.124048    44A      0.135522  
      45A      0.139343    46A      0.148096    47A      0.152196  
      48A      0.156208    49A      0.159794    50A      0.163723  
      51A      0.170740    52A      0.175381    53A      0.187226  
      54A      0.193316    55A      0.202671    56A      0.212670  
      57A      0.221606    58A      0.225107    59A      0.231503  
      60A      0.233842    61A      0.254494    62A      0.258857  
      63A      0.263071    64A      0.269407    65A      0.279637  
      66A      0.289598    67A      0.292749    68A      0.295114  
      69A      0.309600    70A      0.312264    71A      0.314039  
      72A      0.323487    73A      0.330864    74A      0.340404  
      75A      0.346494    76A      0.351087    77A      0.355744  
      78A      0.361425    79A      0.361983    80A      0.368743  
      81A      0.373477    82A      0.376143    83A      0.380826  
      84A      0.382016    85A      0.385249    86A      0.392788  
      87A      0.399055    88A      0.408477    89A      0.414632  
      90A      0.423264    91A      0.428712    92A      0.433496  
      93A      0.437484    94A      0.439317    95A      0.447667  
      96A      0.450539    97A      0.453390    98A      0.457999  
      99A      0.465801   100A      0.471176   101A      0.477610  
     102A      0.479603   103A      0.481485   104A      0.488731  
     105A      0.494235   106A      0.499477   107A      0.502743  
     108A      0.504964   109A      0.516143   110A      0.526413  
     111A      0.531784   112A      0.533490   113A      0.539175  
     114A      0.541864   115A      0.550135   116A      0.557540  
     117A      0.561763   118A      0.571597   119A      0.581623  
     120A      0.587212   121A      0.589236   122A      0.604454  
     123A      0.607403   124A      0.616164   125A      0.620867  
     126A      0.638395   127A      0.648599   128A      0.653344  
     129A      0.662773   130A      0.674777   131A      0.683942  
     132A      0.689279   133A      0.693113   134A      0.725428  
     135A      0.738552   136A      0.747239   137A      0.750086  
     138A      0.770103   139A      0.778898   140A      0.785983  
     141A      0.802675   142A      0.806401   143A      0.818550  
     144A      0.826719   145A      0.832284   146A      0.838352  
     147A      0.845054   148A      0.851243   149A      0.860554  
     150A      0.871855   151A      0.874607   152A      0.880713  
     153A      0.883675   154A      0.887702   155A      0.900353  
     156A      0.906077   157A      0.907748   158A      0.914369  
     159A      0.921641   160A      0.930566   161A      0.934098  
     162A      0.938260   163A      0.944122   164A      0.949386  
     165A      0.962155   166A      0.965196   167A      0.969935  
     168A      0.976693   169A      0.985378   170A      0.998361  
     171A      1.006628   172A      1.011621   173A      1.022274  
     174A      1.032397   175A      1.034758   176A      1.037770  
     177A      1.043904   178A      1.049136   179A      1.053802  
     180A      1.057924   181A      1.071023   182A      1.074087  
     183A      1.077191   184A      1.087989   185A      1.093782  
     186A      1.102345   187A      1.111734   188A      1.117917  
     189A      1.124606   190A      1.132084   191A      1.135230  
     192A      1.139227   193A      1.150090   194A      1.153954  
     195A      1.156555   196A      1.158831   197A      1.179259  
     198A      1.192117   199A      1.197254   200A      1.211063  
     201A      1.217946   202A      1.225071   203A      1.238149  
     204A      1.242754   205A      1.251435   206A      1.254507  
     207A      1.260506   208A      1.271146   209A      1.281393  
     210A      1.296849   211A      1.304431   212A      1.319636  
     213A      1.321739   214A      1.332191   215A      1.338277  
     216A      1.346827   217A      1.356802   218A      1.372432  
     219A      1.390613   220A      1.399851   221A      1.403939  
     222A      1.409007   223A      1.414172   224A      1.428395  
     225A      1.431352   226A      1.446815   227A      1.466330  
     228A      1.468905   229A      1.472034   230A      1.485823  
     231A      1.489093   232A      1.509389   233A      1.520723  
     234A      1.530600   235A      1.545736   236A      1.555479  
     237A      1.575887   238A      1.581054   239A      1.591452  
     240A      1.605078   241A      1.609306   242A      1.621434  
     243A      1.626460   244A      1.640352   245A      1.646541  
     246A      1.658308   247A      1.662003   248A      1.676951  
     249A      1.683866   250A      1.689779   251A      1.699276  
     252A      1.707594   253A      1.715947   254A      1.718538  
     255A      1.731296   256A      1.742990   257A      1.747990  
     258A      1.751891   259A      1.753900   260A      1.767135  
     261A      1.784948   262A      1.792711   263A      1.794759  
     264A      1.804694   265A      1.811816   266A      1.827642  
     267A      1.834734   268A      1.839544   269A      1.856640  
     270A      1.857267   271A      1.867677   272A      1.882734  
     273A      1.902389   274A      1.913519   275A      1.929729  
     276A      1.940337   277A      1.952659   278A      1.965902  
     279A      1.976306   280A      1.982425   281A      1.985829  
     282A      2.002918   283A      2.006400   284A      2.023403  
     285A      2.031013   286A      2.033053   287A      2.069035  
     288A      2.074515   289A      2.089900   290A      2.103579  
     291A      2.109104   292A      2.116608   293A      2.129968  
     294A      2.139887   295A      2.151734   296A      2.172837  
     297A      2.176307   298A      2.191028   299A      2.214252  
     300A      2.222858   301A      2.238249   302A      2.249241  
     303A      2.262540   304A      2.282436   305A      2.292721  
     306A      2.304588   307A      2.322336   308A      2.337816  
     309A      2.345770   310A      2.356700   311A      2.371184  
     312A      2.402882   313A      2.427407   314A      2.450256  
     315A      2.451487   316A      2.470661   317A      2.498485  
     318A      2.542556   319A      2.547886   320A      2.563016  
     321A      2.568923   322A      2.596359   323A      2.610458  
     324A      2.632707   325A      2.656022   326A      2.699624  
     327A      2.770133   328A      2.783052   329A      2.806788  
     330A      2.868128   331A      2.895180   332A      2.906865  
     333A      2.918472   334A      2.934607   335A      2.949960  
     336A      2.957841   337A      2.962706   338A      2.984168  
     339A      3.003401   340A      3.016377   341A      3.033501  
     342A      3.065963   343A      3.084060   344A      3.092693  
     345A      3.141885   346A      3.162337   347A      3.223209  
     348A      3.261701   349A      3.299535   350A      3.329964  
     351A      3.358474   352A      3.407831   353A      3.438082  
     354A      3.470290   355A      3.477488   356A      3.487131  
     357A      3.493493   358A      3.511821   359A      3.519658  
     360A      3.536901   361A      3.593789   362A      3.622709  
     363A      3.629138   364A      3.641973   365A      3.653634  
     366A      3.663468   367A      3.674341   368A      3.687790  
     369A      3.695036   370A      3.706654   371A      3.721636  
     372A      3.746145   373A      3.772050   374A      3.786496  
     375A      3.794723   376A      3.808537   377A      3.824030  
     378A      3.841112   379A      3.844608   380A      3.880104  
     381A      3.882415   382A      3.894766   383A      3.900792  
     384A      3.928135   385A      3.953668   386A      3.973202  
     387A      3.986340   388A      4.002373   389A      4.007535  
     390A      4.011310   391A      4.019437   392A      4.034514  
     393A      4.043659   394A      4.064827   395A      4.076506  
     396A      4.091714   397A      4.112466   398A      4.119466  
     399A      4.125148   400A      4.136908   401A      4.142249  
     402A      4.158257   403A      4.176458   404A      4.191444  
     405A      4.203290   406A      4.210354   407A      4.218873  
     408A      4.249680   409A      4.262637   410A      4.267154  
     411A      4.288963   412A      4.310378   413A      4.327578  
     414A      4.328535   415A      4.346051   416A      4.365003  
     417A      4.370132   418A      4.378939   419A      4.397662  
     420A      4.414106   421A      4.481820   422A      4.506884  
     423A      4.511747   424A      4.529986   425A      4.559516  
     426A      4.567581   427A      4.574371   428A      4.593217  
     429A      4.606039   430A      4.616791   431A      4.623308  
     432A      4.651977   433A      4.655870   434A      4.676324  
     435A      4.690158   436A      4.711279   437A      4.738891  
     438A      4.749019   439A      4.754430   440A      4.784078  
     441A      4.787056   442A      4.828699   443A      4.833659  
     444A      4.877176   445A      4.888480   446A      4.915252  
     447A      4.917459   448A      4.920178   449A      4.942579  
     450A      4.952407   451A      4.961090   452A      4.974443  
     453A      4.999640   454A      5.023286   455A      5.055477  
     456A      5.069872   457A      5.075902   458A      5.081598  
     459A      5.110601   460A      5.134653   461A      5.143137  
     462A      5.161851   463A      5.177768   464A      5.193311  
     465A      5.205462   466A      5.208436   467A      5.240736  
     468A      5.250946   469A      5.282330   470A      5.301577  
     471A      5.313701   472A      5.345430   473A      5.351836  
     474A      5.382948   475A      5.390867   476A      5.402423  
     477A      5.423166   478A      5.438764   479A      5.466239  
     480A      5.481834   481A      5.517762   482A      5.529892  
     483A      5.541372   484A      5.556634   485A      5.577756  
     486A      5.607741   487A      5.615520   488A      5.631805  
     489A      5.636602   490A      5.644649   491A      5.749863  
     492A      5.759946   493A      5.780895   494A      5.797636  
     495A      5.834230   496A      5.849828   497A      5.852623  
     498A      5.880149   499A      5.994303   500A      6.043591  
     501A      6.057895   502A      6.081534   503A      6.094651  
     504A      6.119191   505A      6.158989   506A      6.174529  
     507A      6.205637   508A      6.207266   509A      6.250687  
     510A      6.270173   511A      6.305091   512A      6.316905  
     513A      6.398806   514A      6.459093   515A      6.712092  
     516A      6.725074   517A      6.732974   518A      6.749249  
     519A      6.843864   520A      6.863446   521A      6.869455  
     522A      6.881106   523A      6.941847   524A      6.964019  
     525A      6.979702   526A      7.026275   527A      7.145074  
     528A      7.153570   529A      7.345398   530A      7.378512  
     531A      7.382624   532A      7.394488   533A      7.521188  
     534A      7.541652   535A      7.550483   536A      7.567414  
     537A      7.647137   538A      7.703678   539A      7.839925  
     540A      7.854989   541A      7.951436   542A      7.991097  
     543A      8.268396   544A      8.276256   545A      8.653166  
     546A      8.676418   547A     16.001806   548A     16.189212  
     549A     18.115802   550A     18.156853   551A     18.473426  
     552A     18.642642  

    Final Occupation by Irrep:
              A 
    DOCC [    26 ]
    NA   [    26 ]
    NB   [    26 ]

  @DF-RHF Final Energy:  -308.28952989422248

   => Energetics <=

    Nuclear Repulsion Energy =            249.4869198270414188
    One-Electron Energy =                -915.0950864033977723
    Two-Electron Energy =                 357.3186366821338424
    Total Energy =                       -308.2895298942224827

Computation Completed


Properties will be evaluated at   0.000000,   0.000000,   0.000000 [a0]

Properties computed using the SCF density matrix


 Multipole Moments:

 ------------------------------------------------------------------------------------
     Multipole            Electronic (a.u.)      Nuclear  (a.u.)        Total (a.u.)
 ------------------------------------------------------------------------------------

 L = 1.  Multiply by 2.5417464519 to convert [e a0] to [Debye]
 Dipole X            :          1.3112166            0.0000132            1.3112298
 Dipole Y            :          0.1269852            0.0000094            0.1269946
 Dipole Z            :         -0.1967779           -0.0000113           -0.1967893
 Magnitude           :                                                    1.3319825

 ------------------------------------------------------------------------------------

*** tstop() called on Moses-MBP.lan at Thu Feb 27 17:57:52 2025
Module time:
	user time   =      86.45 seconds =       1.44 minutes
	system time =       8.35 seconds =       0.14 minutes
	total time  =         11 seconds =       0.18 minutes
Total time:
	user time   =     279.10 seconds =       4.65 minutes
	system time =      22.53 seconds =       0.38 minutes
	total time  =        259 seconds =       4.32 minutes

*** tstart() called on Moses-MBP.lan
*** at Thu Feb 27 17:57:52 2025


  //>>>>>>>>>>>>>>>>>>>>>>>>>>>>>>>>>>>//
  //               DFMP2               //
  //<<<<<<<<<<<<<<<<<<<<<<<<<<<<<<<<<<<//

   => Loading Basis Set <=

    Name: (AUG-CC-PVTZ AUX)
    Role: RIFIT
    Keyword: DF_BASIS_MP2
    atoms 1-2, 10-11 entry C          line   148 file /Users/moseschung/miniconda3/envs/psi4/share/psi4/basis/aug-cc-pvtz-ri.gbs 
    atoms 3, 12      entry O          line   264 file /Users/moseschung/miniconda3/envs/psi4/share/psi4/basis/aug-cc-pvtz-ri.gbs 
    atoms 4-9, 13-18 entry H          line    30 file /Users/moseschung/miniconda3/envs/psi4/share/psi4/basis/aug-cc-pvtz-ri.gbs 

	 --------------------------------------------------------
	                          DF-MP2                         
	      2nd-Order Density-Fitted Moller-Plesset Theory     
	              RMP2 Wavefunction,  10 Threads             
	                                                         
	        Rob Parrish, Justin Turney, Andy Simmonett,      
	           Ed Hohenstein, and C. David Sherrill          
	 --------------------------------------------------------

   => Auxiliary Basis Set <=

  Basis Set: (AUG-CC-PVTZ AUX)
    Blend: AUG-CC-PVTZ-RI
    Number of shells: 336
    Number of basis functions: 1188
    Number of Cartesian functions: 1476
    Spherical Harmonics?: true
    Max angular momentum: 4

	 --------------------------------------------------------
	                 NBF =   552, NAUX =  1188
	 --------------------------------------------------------
	   CLASS    FOCC     OCC    AOCC    AVIR     VIR    FVIR
	   PAIRS       0      26      26     526     526       0
	 --------------------------------------------------------

	-----------------------------------------------------------
	 ==================> DF-MP2 Energies <==================== 
	-----------------------------------------------------------
	 Reference Energy          =    -308.2895298942224827 [Eh]
	 Singles Energy            =      -0.0000000000000000 [Eh]
	 Same-Spin Energy          =      -0.2983911040756869 [Eh]
	 Opposite-Spin Energy      =      -1.0384245546767450 [Eh]
	 Correlation Energy        =      -1.3368156587524318 [Eh]
	 Total Energy              =    -309.6263455529748967 [Eh]
	-----------------------------------------------------------
	 ================> DF-SCS-MP2 Energies <================== 
	-----------------------------------------------------------
	 SCS Same-Spin Scale       =       0.3333333333333333 [-]
	 SCS Opposite-Spin Scale   =       1.2000000000000000 [-]
	 SCS Same-Spin Energy      =      -0.0994637013585623 [Eh]
	 SCS Opposite-Spin Energy  =      -1.2461094656120939 [Eh]
	 SCS Correlation Energy    =      -1.3455731669706561 [Eh]
	 SCS Total Energy          =    -309.6351030611931492 [Eh]
	-----------------------------------------------------------


*** tstop() called on Moses-MBP.lan at Thu Feb 27 17:57:57 2025
Module time:
	user time   =      31.24 seconds =       0.52 minutes
	system time =       3.14 seconds =       0.05 minutes
	total time  =          5 seconds =       0.08 minutes
Total time:
	user time   =     310.35 seconds =       5.17 minutes
	system time =      25.67 seconds =       0.43 minutes
	total time  =        264 seconds =       4.40 minutes

    Psi4 stopped on: Thursday, 27 February 2025 05:57PM
    Psi4 wall time for execution: 0:00:16.05


  //>>>>>>>>>>>>>>>>>>>>>>>>>>>>>>>>>>>//
  //          ManyBody Results         //
  //<<<<<<<<<<<<<<<<<<<<<<<<<<<<<<<<<<<//


   ==> N-Body: Counterpoise Corrected (CP) energies <==

        n-Body     Total Energy            Interaction Energy                          N-body Contribution to Interaction Energy
                   [Eh]                    [Eh]                  [kcal/mol]            [Eh]                  [kcal/mol]
             1  N/A                         0.000000000000        0.000000000000        0.000000000000        0.000000000000
  FULL/RTN   2  N/A                        -0.002605065262       -1.634703131680       -0.002605065262       -1.634703131680


    Psi4 stopped on: Thursday, 27 February 2025 05:57PM
    Psi4 wall time for execution: 0:04:25.37

*** Psi4 exiting successfully. Buy a developer a beer!
