
    -----------------------------------------------------------------------
          Psi4: An Open-Source Ab Initio Electronic Structure Package
                               Psi4 1.9.1 release

                         Git: Rev {} zzzzzzz 


    D. G. A. Smith, L. A. Burns, A. C. Simmonett, R. M. Parrish,
    M. C. Schieber, R. Galvelis, P. Kraus, H. Kruse, R. Di Remigio,
    A. Alenaizan, A. M. James, S. Lehtola, J. P. Misiewicz, M. Scheurer,
    R. A. Shaw, J. B. Schriber, Y. Xie, Z. L. Glick, D. A. Sirianni,
    J. S. O'Brien, J. M. Waldrop, A. Kumar, E. G. Hohenstein,
    B. P. Pritchard, B. R. Brooks, H. F. Schaefer III, A. Yu. Sokolov,
    K. Patkowski, A. E. DePrince III, U. Bozkaya, R. A. King,
    F. A. Evangelista, J. M. Turney, T. D. Crawford, C. D. Sherrill,
    J. Chem. Phys. 152(18) 184108 (2020). https://doi.org/10.1063/5.0006002

                            Additional Code Authors
    E. T. Seidl, C. L. Janssen, E. F. Valeev, M. L. Leininger,
    J. F. Gonthier, R. M. Richard, H. R. McAlexander, M. Saitow, X. Wang,
    P. Verma, M. H. Lechner, A. Jiang, S. Behnle, A. G. Heide,
    M. F. Herbst, and D. L. Poole

             Previous Authors, Complete List of Code Contributors,
                       and Citations for Specific Modules
    https://github.com/psi4/psi4/blob/master/codemeta.json
    https://github.com/psi4/psi4/graphs/contributors
    http://psicode.org/psi4manual/master/introduction.html#citing-psifour

    -----------------------------------------------------------------------


    Psi4 started on: Thursday, 27 February 2025 05:30PM

    Process ID: 30935
    Host:       Moses-MBP.lan
    PSIDATADIR: /Users/moseschung/miniconda3/envs/psi4/share/psi4
    Memory:     500.0 MiB
    Threads:    10
    
  ==> Input File <==

--------------------------------------------------------------------------
MEMORY 10 GB

molecule dimer {
0 1
C    1.635449   1.247536   0.209283
C    2.047727  -0.189239   0.362071
O    1.548480  -0.910909  -0.745314
H    1.802687  -1.831576  -0.659123
H    2.034333   1.850858   1.026500
H    0.546224   1.342934   0.213817
H    2.015073   1.650247  -0.732076
H    1.650247  -0.596450   1.304150
H    3.143129  -0.268001   0.414013
--
0 1
C   -1.590107  -1.070649   0.696464
C   -1.772602  -0.178365  -0.497818
O   -1.915449   1.148740  -0.028055
H   -1.998728   1.736540  -0.781331
H   -1.468912  -2.109922   0.386117
H   -2.449662  -1.003946   1.366223
H   -0.699281  -0.774381   1.255697
H   -2.661473  -0.484993  -1.067855
H   -0.900685  -0.269654  -1.159183

units ang
no_reorient
no_com
symmetry c1
}

set {
basis        aug-cc-pVTZ
scf_type     df
}

energy("mp2", bsse_type="cp")
--------------------------------------------------------------------------

  Memory set to   9.313 GiB by Python driver.

Scratch directory: /tmp/

  //>>>>>>>>>>>>>>>>>>>>>>>>>>>>>>>>>>>>>//
  // ManyBody Setup: N-Body Levels [1, 2]//
  //<<<<<<<<<<<<<<<<<<<<<<<<<<<<<<<<<<<<<//

        Number of 1-body computations:     2
        Number of 2-body computations:     1

    -----------------------------------------------------------------------
          Psi4: An Open-Source Ab Initio Electronic Structure Package
                               Psi4 1.9.1 release

                         Git: Rev {} zzzzzzz 


    D. G. A. Smith, L. A. Burns, A. C. Simmonett, R. M. Parrish,
    M. C. Schieber, R. Galvelis, P. Kraus, H. Kruse, R. Di Remigio,
    A. Alenaizan, A. M. James, S. Lehtola, J. P. Misiewicz, M. Scheurer,
    R. A. Shaw, J. B. Schriber, Y. Xie, Z. L. Glick, D. A. Sirianni,
    J. S. O'Brien, J. M. Waldrop, A. Kumar, E. G. Hohenstein,
    B. P. Pritchard, B. R. Brooks, H. F. Schaefer III, A. Yu. Sokolov,
    K. Patkowski, A. E. DePrince III, U. Bozkaya, R. A. King,
    F. A. Evangelista, J. M. Turney, T. D. Crawford, C. D. Sherrill,
    J. Chem. Phys. 152(18) 184108 (2020). https://doi.org/10.1063/5.0006002

                            Additional Code Authors
    E. T. Seidl, C. L. Janssen, E. F. Valeev, M. L. Leininger,
    J. F. Gonthier, R. M. Richard, H. R. McAlexander, M. Saitow, X. Wang,
    P. Verma, M. H. Lechner, A. Jiang, S. Behnle, A. G. Heide,
    M. F. Herbst, and D. L. Poole

             Previous Authors, Complete List of Code Contributors,
                       and Citations for Specific Modules
    https://github.com/psi4/psi4/blob/master/codemeta.json
    https://github.com/psi4/psi4/graphs/contributors
    http://psicode.org/psi4manual/master/introduction.html#citing-psifour

    -----------------------------------------------------------------------


    Psi4 started on: Thursday, 27 February 2025 05:30PM

    Process ID: 30935
    Host:       Moses-MBP.lan
    PSIDATADIR: /Users/moseschung/miniconda3/envs/psi4/share/psi4
    Memory:     9.3 GiB
    Threads:    10
    
  ==> Input QCSchema <==

--------------------------------------------------------------------------
{'driver': 'energy',
 'extras': {'psiapi': True, 'wfn_qcvars_only': True},
 'id': None,
 'keywords': {'SCF_TYPE': 'DF', 'function_kwargs': {}},
 'model': {'basis': 'aug-cc-pvtz', 'method': 'mp2'},
 'molecule': {'atom_labels': ['', '', '', '', '', '', '', '', '', '', '', '', '', '', '', '', '', ''],
              'atomic_numbers': [6, 6, 8, 1, 1, 1, 1, 1, 1, 6, 6, 8, 1, 1, 1, 1, 1, 1],
              'extras': {},
              'fix_com': True,
              'fix_orientation': True,
              'fix_symmetry': 'c1',
              'fragment_charges': [0.0, 0.0],
              'fragment_multiplicities': [1, 1],
              'fragments': [[0, 1, 2, 3, 4, 5, 6, 7, 8], [9, 10, 11, 12, 13, 14, 15, 16, 17]],
              'geometry': [3.0905507021538794, 2.357501371649157, 0.3954875527141906, 3.8696432097053823,
                           -0.35760988225551393, 0.6842150279706413, 2.9262031107489372, -1.7213685352146648,
                           -1.4084393374694757, 3.406584719923196, -3.461177017961547, -1.24556195299014,
                           3.844332217981, 3.497614717112625, 1.9398038677824605, 1.0322137631520767, 2.537777464565583,
                           0.40405557096701644, 3.8079360928046824, 3.1185148693584046, -1.383423143020665,
                           3.1185148693584046, -1.1271271475293216, 2.4644863265158263, 5.939652986984138,
                           -0.5064484913488234, 0.7823711823791718, -3.0048667401733704, -2.0232333864952983,
                           1.3161262162408607, -3.349732309438797, -0.33706100036728553, -0.940739680323165,
                           -3.619674017282071, 2.1708039893584257, -0.053016266449719365, -3.777048519284074,
                           3.281585005902537, -1.4765016033300904, -2.775841382398509, -3.9871747260782318,
                           0.7296553823834002, -4.629190279941274, -1.8971829847488848, 2.5817872963013704,
                           -1.3214495747362756, -1.4633680067581585, 2.3729234265590184, -5.029455060300622,
                           -0.9165039427641685, -2.0179534917007684, -1.7020479753079838, -0.5095722086342052,
                           -2.1905383992865817],
              'mass_numbers': [12, 12, 16, 1, 1, 1, 1, 1, 1, 12, 12, 16, 1, 1, 1, 1, 1, 1],
              'masses': [12.0, 12.0, 15.99491461957, 1.00782503223, 1.00782503223, 1.00782503223, 1.00782503223,
                         1.00782503223, 1.00782503223, 12.0, 12.0, 15.99491461957, 1.00782503223, 1.00782503223,
                         1.00782503223, 1.00782503223, 1.00782503223, 1.00782503223],
              'molecular_charge': 0.0,
              'molecular_multiplicity': 1,
              'name': 'dimer',
              'provenance': {'creator': 'QCElemental',
                             'routine': 'qcelemental.molparse.from_string',
                             'version': '0.29.0'},
              'real': [False, False, False, False, False, False, False, False, False, True, True, True, True, True,
                       True, True, True, True],
              'schema_name': 'qcschema_molecule',
              'schema_version': 2,
              'symbols': ['C', 'C', 'O', 'H', 'H', 'H', 'H', 'H', 'H', 'C', 'C', 'O', 'H', 'H', 'H', 'H', 'H', 'H'],
              'validated': True},
 'protocols': {'stdout': True},
 'provenance': {'creator': 'QCElemental', 'routine': 'qcelemental.models.results', 'version': '0.29.0'},
 'schema_name': 'qcschema_input',
 'schema_version': 1}
--------------------------------------------------------------------------

Scratch directory: /tmp/
   => Libint2 <=

    Primary   basis highest AM E, G, H:  6, 6, 3
    Auxiliary basis highest AM E, G, H:  7, 7, 4
    Onebody   basis highest AM E, G, H:  -, -, -
    Solid Harmonics ordering:            Gaussian

*** tstart() called on Moses-MBP.lan
*** at Thu Feb 27 17:30:52 2025

   => Loading Basis Set <=

    Name: AUG-CC-PVTZ
    Role: ORBITAL
    Keyword: BASIS
    atoms 1-2, 10-11 entry C          line   239 file /Users/moseschung/miniconda3/envs/psi4/share/psi4/basis/aug-cc-pvtz.gbs 
    atoms 3, 12      entry O          line   331 file /Users/moseschung/miniconda3/envs/psi4/share/psi4/basis/aug-cc-pvtz.gbs 
    atoms 4-9, 13-18 entry H          line    40 file /Users/moseschung/miniconda3/envs/psi4/share/psi4/basis/aug-cc-pvtz.gbs 


         ---------------------------------------------------------
                                   SCF
               by Justin Turney, Rob Parrish, Andy Simmonett
                          and Daniel G. A. Smith
                              RHF Reference
                       10 Threads,   9536 MiB Core
         ---------------------------------------------------------

  ==> Geometry <==

    Molecular point group: c1
    Full point group: C1

    Geometry (in Bohr), charge = 0, multiplicity = 1:

       Center              X                  Y                   Z               Mass       
    ------------   -----------------  -----------------  -----------------  -----------------
      Gh(C)           3.090550702154     2.357501371649     0.395487552714    12.000000000000
      Gh(C)           3.869643209705    -0.357609882256     0.684215027971    12.000000000000
      Gh(O)           2.926203110749    -1.721368535215    -1.408439337469    15.994914619570
      Gh(H)           3.406584719923    -3.461177017962    -1.245561952990     1.007825032230
      Gh(H)           3.844332217981     3.497614717113     1.939803867782     1.007825032230
      Gh(H)           1.032213763152     2.537777464566     0.404055570967     1.007825032230
      Gh(H)           3.807936092805     3.118514869358    -1.383423143021     1.007825032230
      Gh(H)           3.118514869358    -1.127127147529     2.464486326516     1.007825032230
      Gh(H)           5.939652986984    -0.506448491349     0.782371182379     1.007825032230
         C           -3.004866740173    -2.023233386495     1.316126216241    12.000000000000
         C           -3.349732309439    -0.337061000367    -0.940739680323    12.000000000000
         O           -3.619674017282     2.170803989358    -0.053016266450    15.994914619570
         H           -3.777048519284     3.281585005903    -1.476501603330     1.007825032230
         H           -2.775841382399    -3.987174726078     0.729655382383     1.007825032230
         H           -4.629190279941    -1.897182984749     2.581787296301     1.007825032230
         H           -1.321449574736    -1.463368006758     2.372923426559     1.007825032230
         H           -5.029455060301    -0.916503942764    -2.017953491701     1.007825032230
         H           -1.702047975308    -0.509572208634    -2.190538399287     1.007825032230

  Running in c1 symmetry.

  Rotational constants: A =      0.14151  B =      0.05213  C =      0.04416 [cm^-1]
  Rotational constants: A =   4242.24176  B =   1562.80877  C =   1323.74675 [MHz]
  Nuclear repulsion =   82.227064068925586

  Charge       = 0
  Multiplicity = 1
  Electrons    = 26
  Nalpha       = 13
  Nbeta        = 13

  ==> Algorithm <==

  SCF Algorithm Type is DF.
  DIIS enabled.
  MOM disabled.
  Fractional occupation disabled.
  Guess Type is SAD.
  Energy threshold   = 1.00e-08
  Density threshold  = 1.00e-08
  Integral threshold = 1.00e-12

  ==> Primary Basis <==

  Basis Set: AUG-CC-PVTZ
    Blend: AUG-CC-PVTZ
    Number of shells: 192
    Number of basis functions: 552
    Number of Cartesian functions: 630
    Spherical Harmonics?: true
    Max angular momentum: 3

   => Loading Basis Set <=

    Name: (AUG-CC-PVTZ AUX)
    Role: JKFIT
    Keyword: DF_BASIS_SCF
    atoms 1-2, 10-11 entry C          line   162 file /Users/moseschung/miniconda3/envs/psi4/share/psi4/basis/aug-cc-pvtz-jkfit.gbs 
    atoms 3, 12      entry O          line   286 file /Users/moseschung/miniconda3/envs/psi4/share/psi4/basis/aug-cc-pvtz-jkfit.gbs 
    atoms 4-9, 13-18 entry H          line    70 file /Users/moseschung/miniconda3/envs/psi4/share/psi4/basis/aug-cc-pvtz-jkfit.gbs 

  ==> Integral Setup <==

  DFHelper Memory: AOs need 2.651 GiB; user supplied 6.985 GiB. 
  Using in-core AOs.

  ==> MemDFJK: Density-Fitted J/K Matrices <==

    J tasked:                   Yes
    K tasked:                   Yes
    wK tasked:                   No
    OpenMP threads:              10
    Memory [MiB]:              7152
    Algorithm:                 Core
    Schwarz Cutoff:           1E-12
    Mask sparsity (%):       4.2251
    Fitting Condition:        1E-10

   => Auxiliary Basis Set <=

  Basis Set: (AUG-CC-PVTZ AUX)
    Blend: AUG-CC-PVTZ-JKFIT
    Number of shells: 348
    Number of basis functions: 1176
    Number of Cartesian functions: 1446
    Spherical Harmonics?: true
    Max angular momentum: 4

  Minimum eigenvalue in the overlap matrix is 5.5538833211E-06.
  Reciprocal condition number of the overlap matrix is 2.8868601387E-07.
    Using symmetric orthogonalization.

  ==> Pre-Iterations <==

  SCF Guess: Superposition of Atomic Densities via on-the-fly atomic UHF (no occupation information).

   -------------------------
    Irrep   Nso     Nmo    
   -------------------------
     A        552     552 
   -------------------------
    Total     552     552
   -------------------------

  ==> Iterations <==

                           Total Energy        Delta E     RMS |[F,P]|

   @DF-RHF iter SAD:  -153.44624789540399   -1.53446e+02   0.00000e+00 
   @DF-RHF iter   1:  -153.99868784049335   -5.52440e-01   9.60724e-04 DIIS/ADIIS
   @DF-RHF iter   2:  -154.11079463577704   -1.12107e-01   5.35023e-04 DIIS/ADIIS
   @DF-RHF iter   3:  -154.14379508903258   -3.30005e-02   8.45626e-05 DIIS
   @DF-RHF iter   4:  -154.14539151507702   -1.59643e-03   3.24728e-05 DIIS
   @DF-RHF iter   5:  -154.14557672420847   -1.85209e-04   5.76025e-06 DIIS
   @DF-RHF iter   6:  -154.14558631524952   -9.59104e-06   1.27263e-06 DIIS
   @DF-RHF iter   7:  -154.14558686903035   -5.53781e-07   3.89558e-07 DIIS
   @DF-RHF iter   8:  -154.14558691234711   -4.33168e-08   1.05055e-07 DIIS
   @DF-RHF iter   9:  -154.14558691651149   -4.16438e-09   2.53426e-08 DIIS
   @DF-RHF iter  10:  -154.14558691677513   -2.63640e-10   4.82281e-09 DIIS
  Energy and wave function converged.


  ==> Post-Iterations <==

    Orbital Energies [Eh]
    ---------------------

    Doubly Occupied:                                                      

       1A    -20.555684     2A    -11.273777     3A    -11.210799  
       4A     -1.360677     5A     -1.014447     6A     -0.832716  
       7A     -0.702219     8A     -0.646398     9A     -0.573420  
      10A     -0.532969    11A     -0.524051    12A     -0.488981  
      13A     -0.441192  

    Virtual:                                                              

      14A      0.022181    15A      0.032660    16A      0.035377  
      17A      0.039010    18A      0.051420    19A      0.053878  
      20A      0.055532    21A      0.061596    22A      0.065226  
      23A      0.076703    24A      0.080811    25A      0.091141  
      26A      0.097543    27A      0.108929    28A      0.114068  
      29A      0.115184    30A      0.119515    31A      0.125837  
      32A      0.130305    33A      0.135812    34A      0.143171  
      35A      0.148707    36A      0.157613    37A      0.161581  
      38A      0.167079    39A      0.170362    40A      0.178514  
      41A      0.186280    42A      0.189805    43A      0.201010  
      44A      0.204342    45A      0.209939    46A      0.234049  
      47A      0.237733    48A      0.249367    49A      0.255444  
      50A      0.266388    51A      0.273897    52A      0.275589  
      53A      0.281917    54A      0.292696    55A      0.303596  
      56A      0.304813    57A      0.310151    58A      0.313753  
      59A      0.318475    60A      0.324195    61A      0.329532  
      62A      0.333284    63A      0.338590    64A      0.341383  
      65A      0.351351    66A      0.351769    67A      0.356994  
      68A      0.366109    69A      0.368551    70A      0.372984  
      71A      0.378734    72A      0.389972    73A      0.392271  
      74A      0.398809    75A      0.407904    76A      0.411379  
      77A      0.420180    78A      0.423823    79A      0.427100  
      80A      0.440998    81A      0.445750    82A      0.452727  
      83A      0.460201    84A      0.463791    85A      0.465944  
      86A      0.467821    87A      0.474440    88A      0.479436  
      89A      0.488725    90A      0.493485    91A      0.495843  
      92A      0.496559    93A      0.506475    94A      0.512895  
      95A      0.520691    96A      0.527988    97A      0.529718  
      98A      0.541927    99A      0.545217   100A      0.555546  
     101A      0.558837   102A      0.567966   103A      0.577959  
     104A      0.584835   105A      0.594685   106A      0.601226  
     107A      0.604999   108A      0.608260   109A      0.618753  
     110A      0.627578   111A      0.634663   112A      0.641272  
     113A      0.644862   114A      0.657729   115A      0.661096  
     116A      0.674436   117A      0.679693   118A      0.683144  
     119A      0.694021   120A      0.696945   121A      0.713120  
     122A      0.717041   123A      0.725528   124A      0.726296  
     125A      0.750428   126A      0.754822   127A      0.782045  
     128A      0.789242   129A      0.799336   130A      0.809366  
     131A      0.828804   132A      0.838650   133A      0.841503  
     134A      0.848698   135A      0.860352   136A      0.871589  
     137A      0.876081   138A      0.884946   139A      0.895772  
     140A      0.906017   141A      0.914297   142A      0.927540  
     143A      0.930930   144A      0.940595   145A      0.953131  
     146A      0.961906   147A      0.969270   148A      0.974374  
     149A      0.982642   150A      0.994803   151A      0.998746  
     152A      1.006928   153A      1.010259   154A      1.020240  
     155A      1.028631   156A      1.033685   157A      1.045599  
     158A      1.051842   159A      1.056356   160A      1.062582  
     161A      1.071570   162A      1.073647   163A      1.087439  
     164A      1.092247   165A      1.101880   166A      1.102425  
     167A      1.111270   168A      1.118674   169A      1.120144  
     170A      1.127623   171A      1.135302   172A      1.139474  
     173A      1.147495   174A      1.153500   175A      1.162303  
     176A      1.166001   177A      1.172724   178A      1.180308  
     179A      1.194173   180A      1.198072   181A      1.207962  
     182A      1.209592   183A      1.216866   184A      1.223375  
     185A      1.231604   186A      1.239178   187A      1.244272  
     188A      1.256688   189A      1.265603   190A      1.270423  
     191A      1.273474   192A      1.289576   193A      1.293343  
     194A      1.302994   195A      1.307524   196A      1.311015  
     197A      1.320479   198A      1.324768   199A      1.331372  
     200A      1.346368   201A      1.359861   202A      1.373303  
     203A      1.377435   204A      1.379683   205A      1.387253  
     206A      1.401201   207A      1.408522   208A      1.411318  
     209A      1.427483   210A      1.437620   211A      1.442563  
     212A      1.455729   213A      1.473620   214A      1.484723  
     215A      1.487218   216A      1.505154   217A      1.514602  
     218A      1.522692   219A      1.534408   220A      1.538829  
     221A      1.547841   222A      1.557505   223A      1.560736  
     224A      1.573532   225A      1.580585   226A      1.582396  
     227A      1.597138   228A      1.609995   229A      1.619968  
     230A      1.635648   231A      1.638288   232A      1.645355  
     233A      1.654208   234A      1.670325   235A      1.675277  
     236A      1.701236   237A      1.710136   238A      1.724065  
     239A      1.731539   240A      1.748234   241A      1.754860  
     242A      1.765273   243A      1.769446   244A      1.784431  
     245A      1.792721   246A      1.800450   247A      1.816437  
     248A      1.819550   249A      1.825159   250A      1.838429  
     251A      1.857425   252A      1.878078   253A      1.889975  
     254A      1.891826   255A      1.909231   256A      1.910663  
     257A      1.932400   258A      1.937390   259A      1.958606  
     260A      1.959751   261A      1.962266   262A      1.990551  
     263A      2.003446   264A      2.014378   265A      2.024893  
     266A      2.037949   267A      2.054678   268A      2.056521  
     269A      2.074819   270A      2.084855   271A      2.094348  
     272A      2.099500   273A      2.107440   274A      2.117919  
     275A      2.128159   276A      2.138778   277A      2.157438  
     278A      2.168691   279A      2.176981   280A      2.198262  
     281A      2.204981   282A      2.226244   283A      2.236183  
     284A      2.258800   285A      2.265595   286A      2.269062  
     287A      2.276288   288A      2.289856   289A      2.316310  
     290A      2.318786   291A      2.352976   292A      2.355464  
     293A      2.375641   294A      2.393121   295A      2.418110  
     296A      2.424726   297A      2.450766   298A      2.472020  
     299A      2.504562   300A      2.509552   301A      2.524689  
     302A      2.533441   303A      2.567992   304A      2.589216  
     305A      2.612641   306A      2.623964   307A      2.642437  
     308A      2.663068   309A      2.692384   310A      2.695623  
     311A      2.726169   312A      2.731924   313A      2.752129  
     314A      2.765025   315A      2.785998   316A      2.803991  
     317A      2.813957   318A      2.849651   319A      2.866472  
     320A      2.891605   321A      2.911185   322A      2.935729  
     323A      2.943807   324A      2.972551   325A      2.984889  
     326A      3.016570   327A      3.026195   328A      3.054497  
     329A      3.075857   330A      3.104414   331A      3.115060  
     332A      3.138098   333A      3.196901   334A      3.207817  
     335A      3.239302   336A      3.243599   337A      3.299546  
     338A      3.328954   339A      3.387345   340A      3.413685  
     341A      3.428562   342A      3.499335   343A      3.510896  
     344A      3.523878   345A      3.529804   346A      3.568240  
     347A      3.571873   348A      3.600752   349A      3.604889  
     350A      3.664544   351A      3.675447   352A      3.717220  
     353A      3.730822   354A      3.755636   355A      3.764196  
     356A      3.818228   357A      3.827354   358A      3.835893  
     359A      3.859361   360A      3.868511   361A      3.909599  
     362A      3.933149   363A      3.943518   364A      3.981745  
     365A      4.005023   366A      4.013379   367A      4.031103  
     368A      4.045509   369A      4.054170   370A      4.079786  
     371A      4.094993   372A      4.118619   373A      4.125590  
     374A      4.159128   375A      4.163786   376A      4.173073  
     377A      4.189948   378A      4.208845   379A      4.227821  
     380A      4.235308   381A      4.244049   382A      4.271044  
     383A      4.283262   384A      4.298902   385A      4.327663  
     386A      4.347216   387A      4.357219   388A      4.371751  
     389A      4.375558   390A      4.398860   391A      4.404962  
     392A      4.446631   393A      4.455824   394A      4.486889  
     395A      4.500588   396A      4.509468   397A      4.520350  
     398A      4.534190   399A      4.548898   400A      4.568691  
     401A      4.571033   402A      4.601730   403A      4.623402  
     404A      4.643473   405A      4.661724   406A      4.666579  
     407A      4.683349   408A      4.696574   409A      4.710942  
     410A      4.721290   411A      4.736208   412A      4.743490  
     413A      4.781130   414A      4.782692   415A      4.806204  
     416A      4.824876   417A      4.843135   418A      4.859530  
     419A      4.871297   420A      4.887984   421A      4.912193  
     422A      4.925311   423A      4.926546   424A      4.946426  
     425A      4.962343   426A      4.984724   427A      4.994382  
     428A      5.014365   429A      5.026738   430A      5.050466  
     431A      5.064739   432A      5.081265   433A      5.091787  
     434A      5.108639   435A      5.121068   436A      5.135574  
     437A      5.162587   438A      5.171113   439A      5.193816  
     440A      5.214039   441A      5.222037   442A      5.244208  
     443A      5.264878   444A      5.276171   445A      5.297818  
     446A      5.329601   447A      5.350891   448A      5.365828  
     449A      5.385407   450A      5.402469   451A      5.414924  
     452A      5.430258   453A      5.442267   454A      5.472680  
     455A      5.505994   456A      5.512445   457A      5.529682  
     458A      5.546149   459A      5.566104   460A      5.580571  
     461A      5.593467   462A      5.600986   463A      5.607903  
     464A      5.635074   465A      5.661916   466A      5.711832  
     467A      5.715858   468A      5.734138   469A      5.753266  
     470A      5.770310   471A      5.789317   472A      5.800561  
     473A      5.829042   474A      5.848916   475A      5.859152  
     476A      5.917079   477A      5.958558   478A      6.001354  
     479A      6.020850   480A      6.041026   481A      6.082046  
     482A      6.094033   483A      6.102774   484A      6.153390  
     485A      6.169275   486A      6.209518   487A      6.249951  
     488A      6.262659   489A      6.295643   490A      6.299950  
     491A      6.303824   492A      6.369366   493A      6.442867  
     494A      6.475683   495A      6.565358   496A      6.730670  
     497A      6.810639   498A      6.822342   499A      6.844650  
     500A      6.888973   501A      6.913854   502A      6.938483  
     503A      6.990891   504A      6.997524   505A      7.022079  
     506A      7.128503   507A      7.153960   508A      7.209244  
     509A      7.259093   510A      7.341428   511A      7.366518  
     512A      7.404436   513A      7.539822   514A      7.560302  
     515A      7.630562   516A      7.768398   517A      7.844236  
     518A      7.852115   519A      7.870176   520A      7.893726  
     521A      7.907077   522A      7.957873   523A      7.996139  
     524A      8.002988   525A      8.159535   526A      8.199253  
     527A      8.202433   528A      8.291488   529A      8.325286  
     530A      8.395585   531A      8.461301   532A      8.601242  
     533A      8.635066   534A      8.927621   535A      9.089808  
     536A     10.009403   537A     10.153705   538A     10.387650  
     539A     10.415776   540A     10.461010   541A     10.837669  
     542A     11.091998   543A     12.008110   544A     12.471753  
     545A     13.293645   546A     14.148802   547A     16.262175  
     548A     18.210097   549A     18.641753   550A     53.304660  
     551A     54.985207   552A     66.821491  

    Final Occupation by Irrep:
              A 
    DOCC [    13 ]
    NA   [    13 ]
    NB   [    13 ]

  @DF-RHF Final Energy:  -154.14558691677513

   => Energetics <=

    Nuclear Repulsion Energy =             82.2270640689255856
    One-Electron Energy =                -372.4306441011829065
    Two-Electron Energy =                 136.0579931154821907
    Total Energy =                       -154.1455869167751302

Computation Completed


Properties will be evaluated at   0.000000,   0.000000,   0.000000 [a0]

Properties computed using the SCF density matrix


 Multipole Moments:

 ------------------------------------------------------------------------------------
     Multipole            Electronic (a.u.)      Nuclear  (a.u.)        Total (a.u.)
 ------------------------------------------------------------------------------------

 L = 1.  Multiply by 2.5417464519 to convert [e a0] to [Debye]
 Dipole X            :         86.3340596          -86.3200192            0.0140404
 Dipole Y            :          2.0860704           -2.2875513           -0.2014809
 Dipole Z            :         -2.4587954            1.8275617           -0.6312337
 Magnitude           :                                                    0.6627576

 ------------------------------------------------------------------------------------

*** tstop() called on Moses-MBP.lan at Thu Feb 27 17:31:01 2025
Module time:
	user time   =      72.16 seconds =       1.20 minutes
	system time =       6.73 seconds =       0.11 minutes
	total time  =          9 seconds =       0.15 minutes
Total time:
	user time   =      72.16 seconds =       1.20 minutes
	system time =       6.73 seconds =       0.11 minutes
	total time  =          9 seconds =       0.15 minutes

*** tstart() called on Moses-MBP.lan
*** at Thu Feb 27 17:31:01 2025


  //>>>>>>>>>>>>>>>>>>>>>>>>>>>>>>>>>>>//
  //               DFMP2               //
  //<<<<<<<<<<<<<<<<<<<<<<<<<<<<<<<<<<<//

   => Loading Basis Set <=

    Name: (AUG-CC-PVTZ AUX)
    Role: RIFIT
    Keyword: DF_BASIS_MP2
    atoms 1-2, 10-11 entry C          line   148 file /Users/moseschung/miniconda3/envs/psi4/share/psi4/basis/aug-cc-pvtz-ri.gbs 
    atoms 3, 12      entry O          line   264 file /Users/moseschung/miniconda3/envs/psi4/share/psi4/basis/aug-cc-pvtz-ri.gbs 
    atoms 4-9, 13-18 entry H          line    30 file /Users/moseschung/miniconda3/envs/psi4/share/psi4/basis/aug-cc-pvtz-ri.gbs 

	 --------------------------------------------------------
	                          DF-MP2                         
	      2nd-Order Density-Fitted Moller-Plesset Theory     
	              RMP2 Wavefunction,  10 Threads             
	                                                         
	        Rob Parrish, Justin Turney, Andy Simmonett,      
	           Ed Hohenstein, and C. David Sherrill          
	 --------------------------------------------------------

   => Auxiliary Basis Set <=

  Basis Set: (AUG-CC-PVTZ AUX)
    Blend: AUG-CC-PVTZ-RI
    Number of shells: 336
    Number of basis functions: 1188
    Number of Cartesian functions: 1476
    Spherical Harmonics?: true
    Max angular momentum: 4

	 --------------------------------------------------------
	                 NBF =   552, NAUX =  1188
	 --------------------------------------------------------
	   CLASS    FOCC     OCC    AOCC    AVIR     VIR    FVIR
	   PAIRS       0      13      13     539     539       0
	 --------------------------------------------------------

	-----------------------------------------------------------
	 ==================> DF-MP2 Energies <==================== 
	-----------------------------------------------------------
	 Reference Energy          =    -154.1455869167751302 [Eh]
	 Singles Energy            =      -0.0000000000000000 [Eh]
	 Same-Spin Energy          =      -0.1481779055008036 [Eh]
	 Opposite-Spin Energy      =      -0.5185828556230387 [Eh]
	 Correlation Energy        =      -0.6667607611238423 [Eh]
	 Total Energy              =    -154.8123476778989698 [Eh]
	-----------------------------------------------------------
	 ================> DF-SCS-MP2 Energies <================== 
	-----------------------------------------------------------
	 SCS Same-Spin Scale       =       0.3333333333333333 [-]
	 SCS Opposite-Spin Scale   =       1.2000000000000000 [-]
	 SCS Same-Spin Energy      =      -0.0493926351669345 [Eh]
	 SCS Opposite-Spin Energy  =      -0.6222994267476465 [Eh]
	 SCS Correlation Energy    =      -0.6716920619145810 [Eh]
	 SCS Total Energy          =    -154.8172789786896999 [Eh]
	-----------------------------------------------------------


*** tstop() called on Moses-MBP.lan at Thu Feb 27 17:31:05 2025
Module time:
	user time   =      20.06 seconds =       0.33 minutes
	system time =       1.85 seconds =       0.03 minutes
	total time  =          4 seconds =       0.07 minutes
Total time:
	user time   =      92.22 seconds =       1.54 minutes
	system time =       8.58 seconds =       0.14 minutes
	total time  =         13 seconds =       0.22 minutes

    Psi4 stopped on: Thursday, 27 February 2025 05:31PM
    Psi4 wall time for execution: 0:00:12.98


    -----------------------------------------------------------------------
          Psi4: An Open-Source Ab Initio Electronic Structure Package
                               Psi4 1.9.1 release

                         Git: Rev {} zzzzzzz 


    D. G. A. Smith, L. A. Burns, A. C. Simmonett, R. M. Parrish,
    M. C. Schieber, R. Galvelis, P. Kraus, H. Kruse, R. Di Remigio,
    A. Alenaizan, A. M. James, S. Lehtola, J. P. Misiewicz, M. Scheurer,
    R. A. Shaw, J. B. Schriber, Y. Xie, Z. L. Glick, D. A. Sirianni,
    J. S. O'Brien, J. M. Waldrop, A. Kumar, E. G. Hohenstein,
    B. P. Pritchard, B. R. Brooks, H. F. Schaefer III, A. Yu. Sokolov,
    K. Patkowski, A. E. DePrince III, U. Bozkaya, R. A. King,
    F. A. Evangelista, J. M. Turney, T. D. Crawford, C. D. Sherrill,
    J. Chem. Phys. 152(18) 184108 (2020). https://doi.org/10.1063/5.0006002

                            Additional Code Authors
    E. T. Seidl, C. L. Janssen, E. F. Valeev, M. L. Leininger,
    J. F. Gonthier, R. M. Richard, H. R. McAlexander, M. Saitow, X. Wang,
    P. Verma, M. H. Lechner, A. Jiang, S. Behnle, A. G. Heide,
    M. F. Herbst, and D. L. Poole

             Previous Authors, Complete List of Code Contributors,
                       and Citations for Specific Modules
    https://github.com/psi4/psi4/blob/master/codemeta.json
    https://github.com/psi4/psi4/graphs/contributors
    http://psicode.org/psi4manual/master/introduction.html#citing-psifour

    -----------------------------------------------------------------------


    Psi4 started on: Thursday, 27 February 2025 05:30PM

    Process ID: 30935
    Host:       Moses-MBP.lan
    PSIDATADIR: /Users/moseschung/miniconda3/envs/psi4/share/psi4
    Memory:     9.3 GiB
    Threads:    10
    
  ==> Input QCSchema <==

--------------------------------------------------------------------------
{'driver': 'energy',
 'extras': {'psiapi': True, 'wfn_qcvars_only': True},
 'id': None,
 'keywords': {'SCF_TYPE': 'DF', 'function_kwargs': {}},
 'model': {'basis': 'aug-cc-pvtz', 'method': 'mp2'},
 'molecule': {'atom_labels': ['', '', '', '', '', '', '', '', '', '', '', '', '', '', '', '', '', ''],
              'atomic_numbers': [6, 6, 8, 1, 1, 1, 1, 1, 1, 6, 6, 8, 1, 1, 1, 1, 1, 1],
              'extras': {},
              'fix_com': True,
              'fix_orientation': True,
              'fix_symmetry': 'c1',
              'fragment_charges': [0.0, 0.0],
              'fragment_multiplicities': [1, 1],
              'fragments': [[0, 1, 2, 3, 4, 5, 6, 7, 8], [9, 10, 11, 12, 13, 14, 15, 16, 17]],
              'geometry': [3.0905507021538794, 2.357501371649157, 0.3954875527141906, 3.8696432097053823,
                           -0.35760988225551393, 0.6842150279706413, 2.9262031107489372, -1.7213685352146648,
                           -1.4084393374694757, 3.406584719923196, -3.461177017961547, -1.24556195299014,
                           3.844332217981, 3.497614717112625, 1.9398038677824605, 1.0322137631520767, 2.537777464565583,
                           0.40405557096701644, 3.8079360928046824, 3.1185148693584046, -1.383423143020665,
                           3.1185148693584046, -1.1271271475293216, 2.4644863265158263, 5.939652986984138,
                           -0.5064484913488234, 0.7823711823791718, -3.0048667401733704, -2.0232333864952983,
                           1.3161262162408607, -3.349732309438797, -0.33706100036728553, -0.940739680323165,
                           -3.619674017282071, 2.1708039893584257, -0.053016266449719365, -3.777048519284074,
                           3.281585005902537, -1.4765016033300904, -2.775841382398509, -3.9871747260782318,
                           0.7296553823834002, -4.629190279941274, -1.8971829847488848, 2.5817872963013704,
                           -1.3214495747362756, -1.4633680067581585, 2.3729234265590184, -5.029455060300622,
                           -0.9165039427641685, -2.0179534917007684, -1.7020479753079838, -0.5095722086342052,
                           -2.1905383992865817],
              'mass_numbers': [12, 12, 16, 1, 1, 1, 1, 1, 1, 12, 12, 16, 1, 1, 1, 1, 1, 1],
              'masses': [12.0, 12.0, 15.99491461957, 1.00782503223, 1.00782503223, 1.00782503223, 1.00782503223,
                         1.00782503223, 1.00782503223, 12.0, 12.0, 15.99491461957, 1.00782503223, 1.00782503223,
                         1.00782503223, 1.00782503223, 1.00782503223, 1.00782503223],
              'molecular_charge': 0.0,
              'molecular_multiplicity': 1,
              'name': 'dimer',
              'provenance': {'creator': 'QCElemental',
                             'routine': 'qcelemental.molparse.from_string',
                             'version': '0.29.0'},
              'real': [True, True, True, True, True, True, True, True, True, False, False, False, False, False, False,
                       False, False, False],
              'schema_name': 'qcschema_molecule',
              'schema_version': 2,
              'symbols': ['C', 'C', 'O', 'H', 'H', 'H', 'H', 'H', 'H', 'C', 'C', 'O', 'H', 'H', 'H', 'H', 'H', 'H'],
              'validated': True},
 'protocols': {'stdout': True},
 'provenance': {'creator': 'QCElemental', 'routine': 'qcelemental.models.results', 'version': '0.29.0'},
 'schema_name': 'qcschema_input',
 'schema_version': 1}
--------------------------------------------------------------------------

Scratch directory: /tmp/
   => Libint2 <=

    Primary   basis highest AM E, G, H:  6, 6, 3
    Auxiliary basis highest AM E, G, H:  7, 7, 4
    Onebody   basis highest AM E, G, H:  -, -, -
    Solid Harmonics ordering:            Gaussian

*** tstart() called on Moses-MBP.lan
*** at Thu Feb 27 17:31:05 2025

   => Loading Basis Set <=

    Name: AUG-CC-PVTZ
    Role: ORBITAL
    Keyword: BASIS
    atoms 1-2, 10-11 entry C          line   239 file /Users/moseschung/miniconda3/envs/psi4/share/psi4/basis/aug-cc-pvtz.gbs 
    atoms 3, 12      entry O          line   331 file /Users/moseschung/miniconda3/envs/psi4/share/psi4/basis/aug-cc-pvtz.gbs 
    atoms 4-9, 13-18 entry H          line    40 file /Users/moseschung/miniconda3/envs/psi4/share/psi4/basis/aug-cc-pvtz.gbs 


         ---------------------------------------------------------
                                   SCF
               by Justin Turney, Rob Parrish, Andy Simmonett
                          and Daniel G. A. Smith
                              RHF Reference
                       10 Threads,   9536 MiB Core
         ---------------------------------------------------------

  ==> Geometry <==

    Molecular point group: c1
    Full point group: C1

    Geometry (in Bohr), charge = 0, multiplicity = 1:

       Center              X                  Y                   Z               Mass       
    ------------   -----------------  -----------------  -----------------  -----------------
         C            3.090550702154     2.357501371649     0.395487552714    12.000000000000
         C            3.869643209705    -0.357609882256     0.684215027971    12.000000000000
         O            2.926203110749    -1.721368535215    -1.408439337469    15.994914619570
         H            3.406584719923    -3.461177017962    -1.245561952990     1.007825032230
         H            3.844332217981     3.497614717113     1.939803867782     1.007825032230
         H            1.032213763152     2.537777464566     0.404055570967     1.007825032230
         H            3.807936092805     3.118514869358    -1.383423143021     1.007825032230
         H            3.118514869358    -1.127127147529     2.464486326516     1.007825032230
         H            5.939652986984    -0.506448491349     0.782371182379     1.007825032230
      Gh(C)          -3.004866740173    -2.023233386495     1.316126216241    12.000000000000
      Gh(C)          -3.349732309439    -0.337061000367    -0.940739680323    12.000000000000
      Gh(O)          -3.619674017282     2.170803989358    -0.053016266450    15.994914619570
      Gh(H)          -3.777048519284     3.281585005903    -1.476501603330     1.007825032230
      Gh(H)          -2.775841382399    -3.987174726078     0.729655382383     1.007825032230
      Gh(H)          -4.629190279941    -1.897182984749     2.581787296301     1.007825032230
      Gh(H)          -1.321449574736    -1.463368006758     2.372923426559     1.007825032230
      Gh(H)          -5.029455060301    -0.916503942764    -2.017953491701     1.007825032230
      Gh(H)          -1.702047975308    -0.509572208634    -2.190538399287     1.007825032230

  Running in c1 symmetry.

  Rotational constants: A =      0.14151  B =      0.05213  C =      0.04416 [cm^-1]
  Rotational constants: A =   4242.24176  B =   1562.80877  C =   1323.74675 [MHz]
  Nuclear repulsion =   82.200601317650680

  Charge       = 0
  Multiplicity = 1
  Electrons    = 26
  Nalpha       = 13
  Nbeta        = 13

  ==> Algorithm <==

  SCF Algorithm Type is DF.
  DIIS enabled.
  MOM disabled.
  Fractional occupation disabled.
  Guess Type is SAD.
  Energy threshold   = 1.00e-08
  Density threshold  = 1.00e-08
  Integral threshold = 1.00e-12

  ==> Primary Basis <==

  Basis Set: AUG-CC-PVTZ
    Blend: AUG-CC-PVTZ
    Number of shells: 192
    Number of basis functions: 552
    Number of Cartesian functions: 630
    Spherical Harmonics?: true
    Max angular momentum: 3

   => Loading Basis Set <=

    Name: (AUG-CC-PVTZ AUX)
    Role: JKFIT
    Keyword: DF_BASIS_SCF
    atoms 1-2, 10-11 entry C          line   162 file /Users/moseschung/miniconda3/envs/psi4/share/psi4/basis/aug-cc-pvtz-jkfit.gbs 
    atoms 3, 12      entry O          line   286 file /Users/moseschung/miniconda3/envs/psi4/share/psi4/basis/aug-cc-pvtz-jkfit.gbs 
    atoms 4-9, 13-18 entry H          line    70 file /Users/moseschung/miniconda3/envs/psi4/share/psi4/basis/aug-cc-pvtz-jkfit.gbs 

  ==> Integral Setup <==

  DFHelper Memory: AOs need 2.651 GiB; user supplied 6.985 GiB. 
  Using in-core AOs.

  ==> MemDFJK: Density-Fitted J/K Matrices <==

    J tasked:                   Yes
    K tasked:                   Yes
    wK tasked:                   No
    OpenMP threads:              10
    Memory [MiB]:              7152
    Algorithm:                 Core
    Schwarz Cutoff:           1E-12
    Mask sparsity (%):       4.2251
    Fitting Condition:        1E-10

   => Auxiliary Basis Set <=

  Basis Set: (AUG-CC-PVTZ AUX)
    Blend: AUG-CC-PVTZ-JKFIT
    Number of shells: 348
    Number of basis functions: 1176
    Number of Cartesian functions: 1446
    Spherical Harmonics?: true
    Max angular momentum: 4

  Minimum eigenvalue in the overlap matrix is 5.5538833211E-06.
  Reciprocal condition number of the overlap matrix is 2.8868601387E-07.
    Using symmetric orthogonalization.

  ==> Pre-Iterations <==

  SCF Guess: Superposition of Atomic Densities via on-the-fly atomic UHF (no occupation information).

   -------------------------
    Irrep   Nso     Nmo    
   -------------------------
     A        552     552 
   -------------------------
    Total     552     552
   -------------------------

  ==> Iterations <==

                           Total Energy        Delta E     RMS |[F,P]|

   @DF-RHF iter SAD:  -153.44583737839818   -1.53446e+02   0.00000e+00 
   @DF-RHF iter   1:  -153.99883291604004   -5.52996e-01   9.60214e-04 DIIS/ADIIS
   @DF-RHF iter   2:  -154.11086210312129   -1.12029e-01   5.34841e-04 DIIS/ADIIS
   @DF-RHF iter   3:  -154.14384119834611   -3.29791e-02   8.44412e-05 DIIS
   @DF-RHF iter   4:  -154.14543998621383   -1.59879e-03   3.23673e-05 DIIS
   @DF-RHF iter   5:  -154.14562440502979   -1.84419e-04   5.76971e-06 DIIS
   @DF-RHF iter   6:  -154.14563402617748   -9.62115e-06   1.27619e-06 DIIS
   @DF-RHF iter   7:  -154.14563458196474   -5.55787e-07   3.91852e-07 DIIS
   @DF-RHF iter   8:  -154.14563462577007   -4.38053e-08   1.05097e-07 DIIS
   @DF-RHF iter   9:  -154.14563462996276   -4.19269e-09   2.53380e-08 DIIS
   @DF-RHF iter  10:  -154.14563463022716   -2.64407e-10   4.81763e-09 DIIS
  Energy and wave function converged.


  ==> Post-Iterations <==

    Orbital Energies [Eh]
    ---------------------

    Doubly Occupied:                                                      

       1A    -20.555589     2A    -11.273958     3A    -11.211327  
       4A     -1.361255     5A     -1.014125     6A     -0.833032  
       7A     -0.702826     8A     -0.645513     9A     -0.573654  
      10A     -0.533026    11A     -0.525028    12A     -0.489129  
      13A     -0.440015  

    Virtual:                                                              

      14A      0.023747    15A      0.032754    16A      0.036043  
      17A      0.038280    18A      0.052246    19A      0.054278  
      20A      0.054567    21A      0.062273    22A      0.066071  
      23A      0.076910    24A      0.083354    25A      0.086759  
      26A      0.099144    27A      0.106735    28A      0.115619  
      29A      0.116867    30A      0.119441    31A      0.128720  
      32A      0.132912    33A      0.134254    34A      0.146824  
      35A      0.149180    36A      0.156591    37A      0.162109  
      38A      0.165720    39A      0.168593    40A      0.178480  
      41A      0.190716    42A      0.195861    43A      0.197670  
      44A      0.202881    45A      0.219147    46A      0.226083  
      47A      0.239343    48A      0.247958    49A      0.255673  
      50A      0.261951    51A      0.271061    52A      0.284712  
      53A      0.290635    54A      0.296151    55A      0.302161  
      56A      0.303856    57A      0.306661    58A      0.312490  
      59A      0.317354    60A      0.327777    61A      0.332194  
      62A      0.334018    63A      0.341157    64A      0.347184  
      65A      0.350534    66A      0.357465    67A      0.362441  
      68A      0.363293    69A      0.368918    70A      0.370981  
      71A      0.384155    72A      0.386480    73A      0.390230  
      74A      0.403532    75A      0.407083    76A      0.410432  
      77A      0.423507    78A      0.427979    79A      0.429454  
      80A      0.439393    81A      0.444854    82A      0.446317  
      83A      0.454639    84A      0.458998    85A      0.461964  
      86A      0.471878    87A      0.478632    88A      0.485043  
      89A      0.492075    90A      0.497794    91A      0.500661  
      92A      0.504489    93A      0.510994    94A      0.518736  
      95A      0.522087    96A      0.528101    97A      0.533920  
      98A      0.539734    99A      0.546662   100A      0.557456  
     101A      0.558529   102A      0.567043   103A      0.575857  
     104A      0.583404   105A      0.591346   106A      0.605613  
     107A      0.607026   108A      0.612394   109A      0.619134  
     110A      0.624943   111A      0.637937   112A      0.640972  
     113A      0.652796   114A      0.654303   115A      0.658811  
     116A      0.666802   117A      0.674910   118A      0.679858  
     119A      0.690277   120A      0.698311   121A      0.707298  
     122A      0.715447   123A      0.731853   124A      0.747948  
     125A      0.748653   126A      0.760931   127A      0.774657  
     128A      0.796948   129A      0.816802   130A      0.820891  
     131A      0.830942   132A      0.835741   133A      0.850213  
     134A      0.852019   135A      0.867680   136A      0.873357  
     137A      0.892715   138A      0.896232   139A      0.907855  
     140A      0.914757   141A      0.920026   142A      0.927358  
     143A      0.932910   144A      0.943748   145A      0.944274  
     146A      0.956653   147A      0.958937   148A      0.973560  
     149A      0.980081   150A      0.985889   151A      0.994040  
     152A      1.003532   153A      1.021550   154A      1.025930  
     155A      1.034084   156A      1.036235   157A      1.036915  
     158A      1.054328   159A      1.059508   160A      1.060800  
     161A      1.074176   162A      1.076677   163A      1.084549  
     164A      1.086706   165A      1.094610   166A      1.102882  
     167A      1.110473   168A      1.118176   169A      1.122904  
     170A      1.124855   171A      1.136153   172A      1.140070  
     173A      1.146579   174A      1.148643   175A      1.153463  
     176A      1.156832   177A      1.175442   178A      1.183683  
     179A      1.190153   180A      1.196953   181A      1.202560  
     182A      1.216331   183A      1.226437   184A      1.235409  
     185A      1.243664   186A      1.245885   187A      1.248304  
     188A      1.250128   189A      1.263201   190A      1.275398  
     191A      1.278290   192A      1.284250   193A      1.289844  
     194A      1.295404   195A      1.305798   196A      1.320933  
     197A      1.328882   198A      1.338263   199A      1.345874  
     200A      1.354342   201A      1.357791   202A      1.368031  
     203A      1.372175   204A      1.381200   205A      1.391329  
     206A      1.406275   207A      1.414860   208A      1.426112  
     209A      1.431671   210A      1.444291   211A      1.447966  
     212A      1.469512   213A      1.479040   214A      1.486380  
     215A      1.494511   216A      1.500952   217A      1.509999  
     218A      1.524015   219A      1.528648   220A      1.533514  
     221A      1.547652   222A      1.551956   223A      1.564585  
     224A      1.583372   225A      1.585071   226A      1.585356  
     227A      1.608432   228A      1.615223   229A      1.621804  
     230A      1.627121   231A      1.636346   232A      1.659356  
     233A      1.671696   234A      1.690172   235A      1.694408  
     236A      1.705442   237A      1.713095   238A      1.725604  
     239A      1.734324   240A      1.745840   241A      1.746514  
     242A      1.753641   243A      1.760298   244A      1.778286  
     245A      1.785488   246A      1.804674   247A      1.815810  
     248A      1.821784   249A      1.833652   250A      1.845948  
     251A      1.859823   252A      1.873681   253A      1.884002  
     254A      1.887182   255A      1.895796   256A      1.916531  
     257A      1.925365   258A      1.934643   259A      1.952644  
     260A      1.970130   261A      1.985647   262A      1.996121  
     263A      2.001409   264A      2.011543   265A      2.027378  
     266A      2.041633   267A      2.053926   268A      2.062419  
     269A      2.080867   270A      2.093343   271A      2.101229  
     272A      2.106694   273A      2.111621   274A      2.123205  
     275A      2.126328   276A      2.154474   277A      2.157559  
     278A      2.173980   279A      2.186831   280A      2.198063  
     281A      2.212397   282A      2.225173   283A      2.244314  
     284A      2.251881   285A      2.267712   286A      2.281088  
     287A      2.287544   288A      2.293834   289A      2.315285  
     290A      2.329894   291A      2.353154   292A      2.354712  
     293A      2.362601   294A      2.387964   295A      2.424549  
     296A      2.432035   297A      2.453525   298A      2.457698  
     299A      2.478639   300A      2.501750   301A      2.510400  
     302A      2.522916   303A      2.582711   304A      2.590474  
     305A      2.615327   306A      2.629923   307A      2.658871  
     308A      2.682130   309A      2.702495   310A      2.708876  
     311A      2.728959   312A      2.744696   313A      2.750515  
     314A      2.756285   315A      2.800921   316A      2.814250  
     317A      2.850705   318A      2.870148   319A      2.875161  
     320A      2.878372   321A      2.914233   322A      2.959148  
     323A      2.969079   324A      2.976757   325A      3.004502  
     326A      3.016629   327A      3.028745   328A      3.047957  
     329A      3.085244   330A      3.102149   331A      3.125635  
     332A      3.154770   333A      3.172602   334A      3.200594  
     335A      3.244182   336A      3.316189   337A      3.321685  
     338A      3.353079   339A      3.355242   340A      3.395522  
     341A      3.420879   342A      3.499625   343A      3.507089  
     344A      3.524461   345A      3.533241   346A      3.543833  
     347A      3.603366   348A      3.612979   349A      3.629446  
     350A      3.654419   351A      3.678471   352A      3.703476  
     353A      3.719237   354A      3.737568   355A      3.748582  
     356A      3.787186   357A      3.801900   358A      3.836444  
     359A      3.850534   360A      3.863702   361A      3.871020  
     362A      3.889723   363A      3.937693   364A      3.974838  
     365A      3.996633   366A      4.007660   367A      4.038119  
     368A      4.046041   369A      4.063647   370A      4.099246  
     371A      4.120875   372A      4.138042   373A      4.147544  
     374A      4.164117   375A      4.177254   376A      4.192905  
     377A      4.207377   378A      4.220201   379A      4.224335  
     380A      4.230300   381A      4.253617   382A      4.270887  
     383A      4.277887   384A      4.310646   385A      4.330028  
     386A      4.342442   387A      4.345001   388A      4.366628  
     389A      4.388021   390A      4.397040   391A      4.413124  
     392A      4.443136   393A      4.457046   394A      4.489470  
     395A      4.500599   396A      4.512399   397A      4.515232  
     398A      4.542872   399A      4.554806   400A      4.575200  
     401A      4.577415   402A      4.599426   403A      4.613677  
     404A      4.618363   405A      4.644084   406A      4.682949  
     407A      4.685786   408A      4.704951   409A      4.719128  
     410A      4.730115   411A      4.740329   412A      4.756707  
     413A      4.771768   414A      4.791000   415A      4.801187  
     416A      4.822332   417A      4.853405   418A      4.873604  
     419A      4.887537   420A      4.899385   421A      4.911893  
     422A      4.927897   423A      4.953177   424A      4.960163  
     425A      4.963603   426A      4.984088   427A      4.991789  
     428A      5.006413   429A      5.018460   430A      5.030432  
     431A      5.061167   432A      5.078743   433A      5.107365  
     434A      5.115572   435A      5.128714   436A      5.140063  
     437A      5.169671   438A      5.174176   439A      5.188177  
     440A      5.217154   441A      5.238501   442A      5.257823  
     443A      5.269297   444A      5.272833   445A      5.302463  
     446A      5.333384   447A      5.357493   448A      5.363977  
     449A      5.372876   450A      5.388916   451A      5.417046  
     452A      5.430585   453A      5.456899   454A      5.469931  
     455A      5.501130   456A      5.518710   457A      5.534516  
     458A      5.539982   459A      5.541549   460A      5.570903  
     461A      5.596013   462A      5.617431   463A      5.622334  
     464A      5.626071   465A      5.670330   466A      5.705463  
     467A      5.723634   468A      5.737715   469A      5.763832  
     470A      5.767928   471A      5.789566   472A      5.811127  
     473A      5.830332   474A      5.862795   475A      5.875239  
     476A      5.923609   477A      5.963984   478A      6.010757  
     479A      6.043185   480A      6.054865   481A      6.058115  
     482A      6.088233   483A      6.143358   484A      6.159754  
     485A      6.177552   486A      6.203940   487A      6.229775  
     488A      6.246746   489A      6.301639   490A      6.307689  
     491A      6.329909   492A      6.346364   493A      6.431410  
     494A      6.486710   495A      6.564923   496A      6.738097  
     497A      6.757536   498A      6.839225   499A      6.853247  
     500A      6.906924   501A      6.921570   502A      6.927469  
     503A      6.983121   504A      7.031371   505A      7.047342  
     506A      7.131603   507A      7.178536   508A      7.187996  
     509A      7.228805   510A      7.340642   511A      7.378621  
     512A      7.409521   513A      7.562466   514A      7.572012  
     515A      7.643349   516A      7.818366   517A      7.851595  
     518A      7.858198   519A      7.872377   520A      7.902519  
     521A      7.909962   522A      7.929912   523A      7.965709  
     524A      8.021361   525A      8.189316   526A      8.199270  
     527A      8.244087   528A      8.315786   529A      8.337715  
     530A      8.399701   531A      8.447593   532A      8.607844  
     533A      8.680795   534A      8.908789   535A      9.083652  
     536A     10.010485   537A     10.135265   538A     10.392724  
     539A     10.430418   540A     10.454037   541A     10.815809  
     542A     11.092313   543A     12.068629   544A     12.412111  
     545A     13.310267   546A     14.160685   547A     16.325848  
     548A     18.151545   549A     18.809511   550A     53.444705  
     551A     54.608569   552A     66.655671  

    Final Occupation by Irrep:
              A 
    DOCC [    13 ]
    NA   [    13 ]
    NB   [    13 ]

  @DF-RHF Final Energy:  -154.14563463022716

   => Energetics <=

    Nuclear Repulsion Energy =             82.2006013176506798
    One-Electron Energy =                -372.3755195651200438
    Two-Electron Energy =                 136.0292836172421858
    Total Energy =                       -154.1456346302271641

Computation Completed


Properties will be evaluated at   0.000000,   0.000000,   0.000000 [a0]

Properties computed using the SCF density matrix


 Multipole Moments:

 ------------------------------------------------------------------------------------
     Multipole            Electronic (a.u.)      Nuclear  (a.u.)        Total (a.u.)
 ------------------------------------------------------------------------------------

 L = 1.  Multiply by 2.5417464519 to convert [e a0] to [Debye]
 Dipole X            :        -85.9661995           86.3200230            0.3538235
 Dipole Y            :         -2.5276611            2.2875550           -0.2401060
 Dipole Z            :          2.3309115           -1.8275674            0.5033441
 Magnitude           :                                                    0.6604524

 ------------------------------------------------------------------------------------

*** tstop() called on Moses-MBP.lan at Thu Feb 27 17:31:14 2025
Module time:
	user time   =      71.47 seconds =       1.19 minutes
	system time =       5.75 seconds =       0.10 minutes
	total time  =          9 seconds =       0.15 minutes
Total time:
	user time   =     164.00 seconds =       2.73 minutes
	system time =      14.40 seconds =       0.24 minutes
	total time  =         22 seconds =       0.37 minutes

*** tstart() called on Moses-MBP.lan
*** at Thu Feb 27 17:31:14 2025


  //>>>>>>>>>>>>>>>>>>>>>>>>>>>>>>>>>>>//
  //               DFMP2               //
  //<<<<<<<<<<<<<<<<<<<<<<<<<<<<<<<<<<<//

   => Loading Basis Set <=

    Name: (AUG-CC-PVTZ AUX)
    Role: RIFIT
    Keyword: DF_BASIS_MP2
    atoms 1-2, 10-11 entry C          line   148 file /Users/moseschung/miniconda3/envs/psi4/share/psi4/basis/aug-cc-pvtz-ri.gbs 
    atoms 3, 12      entry O          line   264 file /Users/moseschung/miniconda3/envs/psi4/share/psi4/basis/aug-cc-pvtz-ri.gbs 
    atoms 4-9, 13-18 entry H          line    30 file /Users/moseschung/miniconda3/envs/psi4/share/psi4/basis/aug-cc-pvtz-ri.gbs 

	 --------------------------------------------------------
	                          DF-MP2                         
	      2nd-Order Density-Fitted Moller-Plesset Theory     
	              RMP2 Wavefunction,  10 Threads             
	                                                         
	        Rob Parrish, Justin Turney, Andy Simmonett,      
	           Ed Hohenstein, and C. David Sherrill          
	 --------------------------------------------------------

   => Auxiliary Basis Set <=

  Basis Set: (AUG-CC-PVTZ AUX)
    Blend: AUG-CC-PVTZ-RI
    Number of shells: 336
    Number of basis functions: 1188
    Number of Cartesian functions: 1476
    Spherical Harmonics?: true
    Max angular momentum: 4

	 --------------------------------------------------------
	                 NBF =   552, NAUX =  1188
	 --------------------------------------------------------
	   CLASS    FOCC     OCC    AOCC    AVIR     VIR    FVIR
	   PAIRS       0      13      13     539     539       0
	 --------------------------------------------------------

	-----------------------------------------------------------
	 ==================> DF-MP2 Energies <==================== 
	-----------------------------------------------------------
	 Reference Energy          =    -154.1456346302271641 [Eh]
	 Singles Energy            =      -0.0000000000000000 [Eh]
	 Same-Spin Energy          =      -0.1481417281212955 [Eh]
	 Opposite-Spin Energy      =      -0.5185905189893173 [Eh]
	 Correlation Energy        =      -0.6667322471106127 [Eh]
	 Total Energy              =    -154.8123668773377801 [Eh]
	-----------------------------------------------------------
	 ================> DF-SCS-MP2 Energies <================== 
	-----------------------------------------------------------
	 SCS Same-Spin Scale       =       0.3333333333333333 [-]
	 SCS Opposite-Spin Scale   =       1.2000000000000000 [-]
	 SCS Same-Spin Energy      =      -0.0493805760404318 [Eh]
	 SCS Opposite-Spin Energy  =      -0.6223086227871807 [Eh]
	 SCS Correlation Energy    =      -0.6716891988276126 [Eh]
	 SCS Total Energy          =    -154.8173238290547715 [Eh]
	-----------------------------------------------------------


*** tstop() called on Moses-MBP.lan at Thu Feb 27 17:31:18 2025
Module time:
	user time   =      20.23 seconds =       0.34 minutes
	system time =       1.77 seconds =       0.03 minutes
	total time  =          4 seconds =       0.07 minutes
Total time:
	user time   =     184.23 seconds =       3.07 minutes
	system time =      16.17 seconds =       0.27 minutes
	total time  =         26 seconds =       0.43 minutes

    Psi4 stopped on: Thursday, 27 February 2025 05:31PM
    Psi4 wall time for execution: 0:00:12.80


    -----------------------------------------------------------------------
          Psi4: An Open-Source Ab Initio Electronic Structure Package
                               Psi4 1.9.1 release

                         Git: Rev {} zzzzzzz 


    D. G. A. Smith, L. A. Burns, A. C. Simmonett, R. M. Parrish,
    M. C. Schieber, R. Galvelis, P. Kraus, H. Kruse, R. Di Remigio,
    A. Alenaizan, A. M. James, S. Lehtola, J. P. Misiewicz, M. Scheurer,
    R. A. Shaw, J. B. Schriber, Y. Xie, Z. L. Glick, D. A. Sirianni,
    J. S. O'Brien, J. M. Waldrop, A. Kumar, E. G. Hohenstein,
    B. P. Pritchard, B. R. Brooks, H. F. Schaefer III, A. Yu. Sokolov,
    K. Patkowski, A. E. DePrince III, U. Bozkaya, R. A. King,
    F. A. Evangelista, J. M. Turney, T. D. Crawford, C. D. Sherrill,
    J. Chem. Phys. 152(18) 184108 (2020). https://doi.org/10.1063/5.0006002

                            Additional Code Authors
    E. T. Seidl, C. L. Janssen, E. F. Valeev, M. L. Leininger,
    J. F. Gonthier, R. M. Richard, H. R. McAlexander, M. Saitow, X. Wang,
    P. Verma, M. H. Lechner, A. Jiang, S. Behnle, A. G. Heide,
    M. F. Herbst, and D. L. Poole

             Previous Authors, Complete List of Code Contributors,
                       and Citations for Specific Modules
    https://github.com/psi4/psi4/blob/master/codemeta.json
    https://github.com/psi4/psi4/graphs/contributors
    http://psicode.org/psi4manual/master/introduction.html#citing-psifour

    -----------------------------------------------------------------------


    Psi4 started on: Thursday, 27 February 2025 05:30PM

    Process ID: 30935
    Host:       Moses-MBP.lan
    PSIDATADIR: /Users/moseschung/miniconda3/envs/psi4/share/psi4
    Memory:     9.3 GiB
    Threads:    10
    
  ==> Input QCSchema <==

--------------------------------------------------------------------------
{'driver': 'energy',
 'extras': {'psiapi': True, 'wfn_qcvars_only': True},
 'id': None,
 'keywords': {'SCF_TYPE': 'DF', 'function_kwargs': {}},
 'model': {'basis': 'aug-cc-pvtz', 'method': 'mp2'},
 'molecule': {'atom_labels': ['', '', '', '', '', '', '', '', '', '', '', '', '', '', '', '', '', ''],
              'atomic_numbers': [6, 6, 8, 1, 1, 1, 1, 1, 1, 6, 6, 8, 1, 1, 1, 1, 1, 1],
              'extras': {},
              'fix_com': True,
              'fix_orientation': True,
              'fix_symmetry': 'c1',
              'fragment_charges': [0.0, 0.0],
              'fragment_multiplicities': [1, 1],
              'fragments': [[0, 1, 2, 3, 4, 5, 6, 7, 8], [9, 10, 11, 12, 13, 14, 15, 16, 17]],
              'geometry': [3.0905507021538794, 2.357501371649157, 0.3954875527141906, 3.8696432097053823,
                           -0.35760988225551393, 0.6842150279706413, 2.9262031107489372, -1.7213685352146648,
                           -1.4084393374694757, 3.406584719923196, -3.461177017961547, -1.24556195299014,
                           3.844332217981, 3.497614717112625, 1.9398038677824605, 1.0322137631520767, 2.537777464565583,
                           0.40405557096701644, 3.8079360928046824, 3.1185148693584046, -1.383423143020665,
                           3.1185148693584046, -1.1271271475293216, 2.4644863265158263, 5.939652986984138,
                           -0.5064484913488234, 0.7823711823791718, -3.0048667401733704, -2.0232333864952983,
                           1.3161262162408607, -3.349732309438797, -0.33706100036728553, -0.940739680323165,
                           -3.619674017282071, 2.1708039893584257, -0.053016266449719365, -3.777048519284074,
                           3.281585005902537, -1.4765016033300904, -2.775841382398509, -3.9871747260782318,
                           0.7296553823834002, -4.629190279941274, -1.8971829847488848, 2.5817872963013704,
                           -1.3214495747362756, -1.4633680067581585, 2.3729234265590184, -5.029455060300622,
                           -0.9165039427641685, -2.0179534917007684, -1.7020479753079838, -0.5095722086342052,
                           -2.1905383992865817],
              'mass_numbers': [12, 12, 16, 1, 1, 1, 1, 1, 1, 12, 12, 16, 1, 1, 1, 1, 1, 1],
              'masses': [12.0, 12.0, 15.99491461957, 1.00782503223, 1.00782503223, 1.00782503223, 1.00782503223,
                         1.00782503223, 1.00782503223, 12.0, 12.0, 15.99491461957, 1.00782503223, 1.00782503223,
                         1.00782503223, 1.00782503223, 1.00782503223, 1.00782503223],
              'molecular_charge': 0.0,
              'molecular_multiplicity': 1,
              'name': 'dimer',
              'provenance': {'creator': 'QCElemental',
                             'routine': 'qcelemental.molparse.from_string',
                             'version': '0.29.0'},
              'real': [True, True, True, True, True, True, True, True, True, True, True, True, True, True, True, True,
                       True, True],
              'schema_name': 'qcschema_molecule',
              'schema_version': 2,
              'symbols': ['C', 'C', 'O', 'H', 'H', 'H', 'H', 'H', 'H', 'C', 'C', 'O', 'H', 'H', 'H', 'H', 'H', 'H'],
              'validated': True},
 'protocols': {'stdout': True},
 'provenance': {'creator': 'QCElemental', 'routine': 'qcelemental.models.results', 'version': '0.29.0'},
 'schema_name': 'qcschema_input',
 'schema_version': 1}
--------------------------------------------------------------------------

Scratch directory: /tmp/
   => Libint2 <=

    Primary   basis highest AM E, G, H:  6, 6, 3
    Auxiliary basis highest AM E, G, H:  7, 7, 4
    Onebody   basis highest AM E, G, H:  -, -, -
    Solid Harmonics ordering:            Gaussian

*** tstart() called on Moses-MBP.lan
*** at Thu Feb 27 17:31:18 2025

   => Loading Basis Set <=

    Name: AUG-CC-PVTZ
    Role: ORBITAL
    Keyword: BASIS
    atoms 1-2, 10-11 entry C          line   239 file /Users/moseschung/miniconda3/envs/psi4/share/psi4/basis/aug-cc-pvtz.gbs 
    atoms 3, 12      entry O          line   331 file /Users/moseschung/miniconda3/envs/psi4/share/psi4/basis/aug-cc-pvtz.gbs 
    atoms 4-9, 13-18 entry H          line    40 file /Users/moseschung/miniconda3/envs/psi4/share/psi4/basis/aug-cc-pvtz.gbs 


         ---------------------------------------------------------
                                   SCF
               by Justin Turney, Rob Parrish, Andy Simmonett
                          and Daniel G. A. Smith
                              RHF Reference
                       10 Threads,   9536 MiB Core
         ---------------------------------------------------------

  ==> Geometry <==

    Molecular point group: c1
    Full point group: C1

    Geometry (in Bohr), charge = 0, multiplicity = 1:

       Center              X                  Y                   Z               Mass       
    ------------   -----------------  -----------------  -----------------  -----------------
         C            3.090550702154     2.357501371649     0.395487552714    12.000000000000
         C            3.869643209705    -0.357609882256     0.684215027971    12.000000000000
         O            2.926203110749    -1.721368535215    -1.408439337469    15.994914619570
         H            3.406584719923    -3.461177017962    -1.245561952990     1.007825032230
         H            3.844332217981     3.497614717113     1.939803867782     1.007825032230
         H            1.032213763152     2.537777464566     0.404055570967     1.007825032230
         H            3.807936092805     3.118514869358    -1.383423143021     1.007825032230
         H            3.118514869358    -1.127127147529     2.464486326516     1.007825032230
         H            5.939652986984    -0.506448491349     0.782371182379     1.007825032230
         C           -3.004866740173    -2.023233386495     1.316126216241    12.000000000000
         C           -3.349732309439    -0.337061000367    -0.940739680323    12.000000000000
         O           -3.619674017282     2.170803989358    -0.053016266450    15.994914619570
         H           -3.777048519284     3.281585005903    -1.476501603330     1.007825032230
         H           -2.775841382399    -3.987174726078     0.729655382383     1.007825032230
         H           -4.629190279941    -1.897182984749     2.581787296301     1.007825032230
         H           -1.321449574736    -1.463368006758     2.372923426559     1.007825032230
         H           -5.029455060301    -0.916503942764    -2.017953491701     1.007825032230
         H           -1.702047975308    -0.509572208634    -2.190538399287     1.007825032230

  Running in c1 symmetry.

  Rotational constants: A =      0.14151  B =      0.05213  C =      0.04416 [cm^-1]
  Rotational constants: A =   4242.24176  B =   1562.80877  C =   1323.74675 [MHz]
  Nuclear repulsion =  258.013930071130233

  Charge       = 0
  Multiplicity = 1
  Electrons    = 52
  Nalpha       = 26
  Nbeta        = 26

  ==> Algorithm <==

  SCF Algorithm Type is DF.
  DIIS enabled.
  MOM disabled.
  Fractional occupation disabled.
  Guess Type is SAD.
  Energy threshold   = 1.00e-08
  Density threshold  = 1.00e-08
  Integral threshold = 1.00e-12

  ==> Primary Basis <==

  Basis Set: AUG-CC-PVTZ
    Blend: AUG-CC-PVTZ
    Number of shells: 192
    Number of basis functions: 552
    Number of Cartesian functions: 630
    Spherical Harmonics?: true
    Max angular momentum: 3

   => Loading Basis Set <=

    Name: (AUG-CC-PVTZ AUX)
    Role: JKFIT
    Keyword: DF_BASIS_SCF
    atoms 1-2, 10-11 entry C          line   162 file /Users/moseschung/miniconda3/envs/psi4/share/psi4/basis/aug-cc-pvtz-jkfit.gbs 
    atoms 3, 12      entry O          line   286 file /Users/moseschung/miniconda3/envs/psi4/share/psi4/basis/aug-cc-pvtz-jkfit.gbs 
    atoms 4-9, 13-18 entry H          line    70 file /Users/moseschung/miniconda3/envs/psi4/share/psi4/basis/aug-cc-pvtz-jkfit.gbs 

  ==> Integral Setup <==

  DFHelper Memory: AOs need 2.651 GiB; user supplied 6.985 GiB. 
  Using in-core AOs.

  ==> MemDFJK: Density-Fitted J/K Matrices <==

    J tasked:                   Yes
    K tasked:                   Yes
    wK tasked:                   No
    OpenMP threads:              10
    Memory [MiB]:              7152
    Algorithm:                 Core
    Schwarz Cutoff:           1E-12
    Mask sparsity (%):       4.2251
    Fitting Condition:        1E-10

   => Auxiliary Basis Set <=

  Basis Set: (AUG-CC-PVTZ AUX)
    Blend: AUG-CC-PVTZ-JKFIT
    Number of shells: 348
    Number of basis functions: 1176
    Number of Cartesian functions: 1446
    Spherical Harmonics?: true
    Max angular momentum: 4

  Minimum eigenvalue in the overlap matrix is 5.5538833211E-06.
  Reciprocal condition number of the overlap matrix is 2.8868601387E-07.
    Using symmetric orthogonalization.

  ==> Pre-Iterations <==

  SCF Guess: Superposition of Atomic Densities via on-the-fly atomic UHF (no occupation information).

   -------------------------
    Irrep   Nso     Nmo    
   -------------------------
     A        552     552 
   -------------------------
    Total     552     552
   -------------------------

  ==> Iterations <==

                           Total Energy        Delta E     RMS |[F,P]|

   @DF-RHF iter SAD:  -307.06703112092362   -3.07067e+02   0.00000e+00 
   @DF-RHF iter   1:  -307.99905108519027   -9.32020e-01   1.34242e-03 DIIS/ADIIS
   @DF-RHF iter   2:  -308.22175521808339   -2.22704e-01   7.37739e-04 DIIS/ADIIS
   @DF-RHF iter   3:  -308.28531044818567   -6.35552e-02   1.20698e-04 DIIS/ADIIS
   @DF-RHF iter   4:  -308.28855417653011   -3.24373e-03   4.45662e-05 DIIS
   @DF-RHF iter   5:  -308.28890248805044   -3.48312e-04   8.43761e-06 DIIS
   @DF-RHF iter   6:  -308.28892273894877   -2.02509e-05   1.97048e-06 DIIS
   @DF-RHF iter   7:  -308.28892401543374   -1.27648e-06   5.98626e-07 DIIS
   @DF-RHF iter   8:  -308.28892411810330   -1.02670e-07   1.57684e-07 DIIS
   @DF-RHF iter   9:  -308.28892412743403   -9.33073e-09   3.88433e-08 DIIS
   @DF-RHF iter  10:  -308.28892412804100   -6.06974e-10   8.17099e-09 DIIS
  Energy and wave function converged.


  ==> Post-Iterations <==

    Orbital Energies [Eh]
    ---------------------

    Doubly Occupied:                                                      

       1A    -20.557097     2A    -20.549690     3A    -11.272532  
       4A    -11.262039     5A    -11.204855     6A    -11.204335  
       7A     -1.363439     8A     -1.355230     9A     -1.011409  
      10A     -1.006751    11A     -0.831211    12A     -0.824864  
      13A     -0.704117    14A     -0.695464    15A     -0.654394  
      16A     -0.629542    17A     -0.574353    18A     -0.567584  
      19A     -0.530395    20A     -0.528210    21A     -0.525133  
      22A     -0.513011    23A     -0.489764    24A     -0.478783  
      25A     -0.440746    26A     -0.431334  

    Virtual:                                                              

      27A      0.027937    28A      0.034546    29A      0.037556  
      30A      0.040860    31A      0.052105    32A      0.054566  
      33A      0.056389    34A      0.063297    35A      0.065261  
      36A      0.078467    37A      0.087570    38A      0.090667  
      39A      0.110237    40A      0.116445    41A      0.118238  
      42A      0.121816    43A      0.129668    44A      0.133259  
      45A      0.138453    46A      0.140897    47A      0.153221  
      48A      0.157557    49A      0.161320    50A      0.166400  
      51A      0.169190    52A      0.180762    53A      0.190636  
      54A      0.191683    55A      0.194265    56A      0.202284  
      57A      0.216502    58A      0.222286    59A      0.240367  
      60A      0.245237    61A      0.250911    62A      0.265635  
      63A      0.275087    64A      0.282928    65A      0.290579  
      66A      0.292345    67A      0.296144    68A      0.303620  
      69A      0.307434    70A      0.315584    71A      0.318182  
      72A      0.326715    73A      0.327969    74A      0.329134  
      75A      0.340577    76A      0.345257    77A      0.346911  
      78A      0.356804    79A      0.360061    80A      0.363478  
      81A      0.370766    82A      0.379251    83A      0.382801  
      84A      0.387492    85A      0.397153    86A      0.402205  
      87A      0.410208    88A      0.411774    89A      0.415435  
      90A      0.425588    91A      0.428217    92A      0.435874  
      93A      0.442646    94A      0.444619    95A      0.450300  
      96A      0.454454    97A      0.460535    98A      0.465547  
      99A      0.468811   100A      0.473857   101A      0.479620  
     102A      0.490921   103A      0.491689   104A      0.494792  
     105A      0.503294   106A      0.507591   107A      0.509894  
     108A      0.519167   109A      0.523644   110A      0.530725  
     111A      0.532375   112A      0.536558   113A      0.543948  
     114A      0.553971   115A      0.559202   116A      0.566329  
     117A      0.568118   118A      0.581787   119A      0.590022  
     120A      0.595316   121A      0.599385   122A      0.605432  
     123A      0.611743   124A      0.614894   125A      0.628374  
     126A      0.636527   127A      0.643106   128A      0.648332  
     129A      0.652686   130A      0.669877   131A      0.673028  
     132A      0.693448   133A      0.707348   134A      0.724419  
     135A      0.728516   136A      0.742482   137A      0.757421  
     138A      0.772743   139A      0.798036   140A      0.799244  
     141A      0.808121   142A      0.814832   143A      0.821215  
     144A      0.822319   145A      0.834440   146A      0.839864  
     147A      0.851544   148A      0.864826   149A      0.865973  
     150A      0.874314   151A      0.878542   152A      0.882437  
     153A      0.902069   154A      0.905452   155A      0.910256  
     156A      0.915995   157A      0.924708   158A      0.927834  
     159A      0.935893   160A      0.938423   161A      0.945218  
     162A      0.956326   163A      0.958364   164A      0.966522  
     165A      0.976385   166A      0.988628   167A      0.994752  
     168A      1.006982   169A      1.013547   170A      1.021731  
     171A      1.027132   172A      1.035882   173A      1.043285  
     174A      1.051927   175A      1.059761   176A      1.061986  
     177A      1.067310   178A      1.069631   179A      1.074726  
     180A      1.082440   181A      1.084552   182A      1.095809  
     183A      1.107666   184A      1.110774   185A      1.114886  
     186A      1.115789   187A      1.122813   188A      1.130511  
     189A      1.140172   190A      1.148320   191A      1.161083  
     192A      1.161721   193A      1.166490   194A      1.181835  
     195A      1.183906   196A      1.190660   197A      1.194672  
     198A      1.207816   199A      1.212740   200A      1.216426  
     201A      1.232180   202A      1.244460   203A      1.247532  
     204A      1.249833   205A      1.269358   206A      1.278169  
     207A      1.281784   208A      1.289265   209A      1.295002  
     210A      1.308545   211A      1.317391   212A      1.326185  
     213A      1.331918   214A      1.344507   215A      1.346659  
     216A      1.353893   217A      1.359057   218A      1.380621  
     219A      1.385112   220A      1.412403   221A      1.416683  
     222A      1.421498   223A      1.436235   224A      1.448025  
     225A      1.451647   226A      1.466398   227A      1.477769  
     228A      1.480037   229A      1.484938   230A      1.492608  
     231A      1.503437   232A      1.513651   233A      1.520852  
     234A      1.539021   235A      1.545102   236A      1.550732  
     237A      1.563284   238A      1.577448   239A      1.589448  
     240A      1.605595   241A      1.609880   242A      1.618330  
     243A      1.645530   244A      1.650202   245A      1.657134  
     246A      1.664040   247A      1.672055   248A      1.689078  
     249A      1.692986   250A      1.702540   251A      1.713519  
     252A      1.721551   253A      1.723442   254A      1.739330  
     255A      1.744179   256A      1.750219   257A      1.761125  
     258A      1.766426   259A      1.774548   260A      1.787027  
     261A      1.794841   262A      1.799102   263A      1.809482  
     264A      1.820728   265A      1.830884   266A      1.846760  
     267A      1.854169   268A      1.861600   269A      1.877781  
     270A      1.890948   271A      1.895700   272A      1.903657  
     273A      1.915371   274A      1.929743   275A      1.941066  
     276A      1.959064   277A      1.971390   278A      1.980438  
     279A      1.989593   280A      2.011900   281A      2.012256  
     282A      2.019614   283A      2.040378   284A      2.053846  
     285A      2.076346   286A      2.084924   287A      2.090730  
     288A      2.092069   289A      2.115673   290A      2.118995  
     291A      2.126716   292A      2.137932   293A      2.141340  
     294A      2.157198   295A      2.158981   296A      2.165690  
     297A      2.186349   298A      2.205877   299A      2.219029  
     300A      2.241436   301A      2.267794   302A      2.280395  
     303A      2.290664   304A      2.306226   305A      2.309658  
     306A      2.318527   307A      2.353582   308A      2.361015  
     309A      2.372508   310A      2.415617   311A      2.430757  
     312A      2.452995   313A      2.471923   314A      2.480659  
     315A      2.500113   316A      2.511322   317A      2.542258  
     318A      2.555010   319A      2.586026   320A      2.593182  
     321A      2.602457   322A      2.644351   323A      2.668419  
     324A      2.715452   325A      2.731121   326A      2.741953  
     327A      2.751039   328A      2.817501   329A      2.854710  
     330A      2.882250   331A      2.885619   332A      2.918911  
     333A      2.928218   334A      2.945672   335A      2.958920  
     336A      2.979807   337A      2.985146   338A      3.001857  
     339A      3.005601   340A      3.035810   341A      3.056923  
     342A      3.081243   343A      3.096245   344A      3.124424  
     345A      3.134324   346A      3.194199   347A      3.223174  
     348A      3.248959   349A      3.308755   350A      3.328232  
     351A      3.379337   352A      3.410193   353A      3.477978  
     354A      3.488613   355A      3.497655   356A      3.518714  
     357A      3.527296   358A      3.530893   359A      3.555000  
     360A      3.564157   361A      3.609446   362A      3.643350  
     363A      3.648074   364A      3.656435   365A      3.674524  
     366A      3.683474   367A      3.710604   368A      3.725175  
     369A      3.731978   370A      3.745793   371A      3.771802  
     372A      3.778088   373A      3.802565   374A      3.810541  
     375A      3.826566   376A      3.831213   377A      3.838149  
     378A      3.850739   379A      3.879946   380A      3.884073  
     381A      3.905780   382A      3.919541   383A      3.933640  
     384A      3.967055   385A      3.978712   386A      3.989478  
     387A      4.000273   388A      4.011634   389A      4.028461  
     390A      4.032188   391A      4.043265   392A      4.061265  
     393A      4.075854   394A      4.076509   395A      4.090242  
     396A      4.105963   397A      4.116455   398A      4.142687  
     399A      4.148060   400A      4.157049   401A      4.168834  
     402A      4.181288   403A      4.200820   404A      4.212365  
     405A      4.223988   406A      4.233944   407A      4.244915  
     408A      4.266510   409A      4.270955   410A      4.280690  
     411A      4.306391   412A      4.315309   413A      4.352924  
     414A      4.364968   415A      4.385808   416A      4.389362  
     417A      4.404031   418A      4.408433   419A      4.437111  
     420A      4.439911   421A      4.492929   422A      4.507395  
     423A      4.519126   424A      4.535703   425A      4.556606  
     426A      4.562841   427A      4.590279   428A      4.597880  
     429A      4.626931   430A      4.629236   431A      4.649754  
     432A      4.668304   433A      4.680474   434A      4.692887  
     435A      4.718501   436A      4.723791   437A      4.733503  
     438A      4.751901   439A      4.798526   440A      4.802716  
     441A      4.810562   442A      4.828249   443A      4.853364  
     444A      4.867092   445A      4.897890   446A      4.911443  
     447A      4.927000   448A      4.935830   449A      4.954369  
     450A      4.959447   451A      4.995066   452A      5.011906  
     453A      5.029913   454A      5.065344   455A      5.071429  
     456A      5.091361   457A      5.095145   458A      5.108456  
     459A      5.112537   460A      5.142350   461A      5.154987  
     462A      5.169952   463A      5.187611   464A      5.200108  
     465A      5.213540   466A      5.237606   467A      5.248369  
     468A      5.274826   469A      5.291817   470A      5.321432  
     471A      5.326233   472A      5.354105   473A      5.369253  
     474A      5.379585   475A      5.393636   476A      5.411911  
     477A      5.427642   478A      5.458201   479A      5.493933  
     480A      5.502333   481A      5.512843   482A      5.536956  
     483A      5.556438   484A      5.573431   485A      5.586005  
     486A      5.599093   487A      5.625175   488A      5.651314  
     489A      5.699243   490A      5.719356   491A      5.767544  
     492A      5.777191   493A      5.781776   494A      5.818736  
     495A      5.831855   496A      5.837042   497A      5.864465  
     498A      5.866700   499A      6.029976   500A      6.041485  
     501A      6.056284   502A      6.100268   503A      6.109738  
     504A      6.160876   505A      6.180192   506A      6.190136  
     507A      6.234852   508A      6.261838   509A      6.281955  
     510A      6.320345   511A      6.325164   512A      6.353803  
     513A      6.420863   514A      6.465486   515A      6.724437  
     516A      6.742071   517A      6.756295   518A      6.823731  
     519A      6.832876   520A      6.863033   521A      6.888330  
     522A      6.939458   523A      6.979436   524A      6.998323  
     525A      7.004076   526A      7.047783   527A      7.185501  
     528A      7.232527   529A      7.371760   530A      7.375402  
     531A      7.399656   532A      7.414469   533A      7.539846  
     534A      7.558626   535A      7.562922   536A      7.578168  
     537A      7.635688   538A      7.643708   539A      7.859853  
     540A      7.871784   541A      7.965798   542A      8.000726  
     543A      8.291217   544A      8.316674   545A      8.637086  
     546A      8.682304   547A     16.252031   548A     16.325156  
     549A     18.129740   550A     18.221390   551A     18.669260  
     552A     18.815211  

    Final Occupation by Irrep:
              A 
    DOCC [    26 ]
    NA   [    26 ]
    NB   [    26 ]

  @DF-RHF Final Energy:  -308.28892412804100

   => Energetics <=

    Nuclear Repulsion Energy =            258.0139300711302326
    One-Electron Energy =                -932.1931455056885625
    Two-Electron Energy =                 365.8902913065172697
    Total Energy =                       -308.2889241280410033

Computation Completed


Properties will be evaluated at   0.000000,   0.000000,   0.000000 [a0]

Properties computed using the SCF density matrix


 Multipole Moments:

 ------------------------------------------------------------------------------------
     Multipole            Electronic (a.u.)      Nuclear  (a.u.)        Total (a.u.)
 ------------------------------------------------------------------------------------

 L = 1.  Multiply by 2.5417464519 to convert [e a0] to [Debye]
 Dipole X            :          0.3807543            0.0000038            0.3807580
 Dipole Y            :         -0.4312996            0.0000038           -0.4312958
 Dipole Z            :         -0.1650270           -0.0000057           -0.1650327
 Magnitude           :                                                    0.5985219

 ------------------------------------------------------------------------------------

*** tstop() called on Moses-MBP.lan at Thu Feb 27 17:31:32 2025
Module time:
	user time   =      91.35 seconds =       1.52 minutes
	system time =      10.02 seconds =       0.17 minutes
	total time  =         14 seconds =       0.23 minutes
Total time:
	user time   =     275.79 seconds =       4.60 minutes
	system time =      26.25 seconds =       0.44 minutes
	total time  =         40 seconds =       0.67 minutes

*** tstart() called on Moses-MBP.lan
*** at Thu Feb 27 17:31:32 2025


  //>>>>>>>>>>>>>>>>>>>>>>>>>>>>>>>>>>>//
  //               DFMP2               //
  //<<<<<<<<<<<<<<<<<<<<<<<<<<<<<<<<<<<//

   => Loading Basis Set <=

    Name: (AUG-CC-PVTZ AUX)
    Role: RIFIT
    Keyword: DF_BASIS_MP2
    atoms 1-2, 10-11 entry C          line   148 file /Users/moseschung/miniconda3/envs/psi4/share/psi4/basis/aug-cc-pvtz-ri.gbs 
    atoms 3, 12      entry O          line   264 file /Users/moseschung/miniconda3/envs/psi4/share/psi4/basis/aug-cc-pvtz-ri.gbs 
    atoms 4-9, 13-18 entry H          line    30 file /Users/moseschung/miniconda3/envs/psi4/share/psi4/basis/aug-cc-pvtz-ri.gbs 

	 --------------------------------------------------------
	                          DF-MP2                         
	      2nd-Order Density-Fitted Moller-Plesset Theory     
	              RMP2 Wavefunction,  10 Threads             
	                                                         
	        Rob Parrish, Justin Turney, Andy Simmonett,      
	           Ed Hohenstein, and C. David Sherrill          
	 --------------------------------------------------------

   => Auxiliary Basis Set <=

  Basis Set: (AUG-CC-PVTZ AUX)
    Blend: AUG-CC-PVTZ-RI
    Number of shells: 336
    Number of basis functions: 1188
    Number of Cartesian functions: 1476
    Spherical Harmonics?: true
    Max angular momentum: 4

	 --------------------------------------------------------
	                 NBF =   552, NAUX =  1188
	 --------------------------------------------------------
	   CLASS    FOCC     OCC    AOCC    AVIR     VIR    FVIR
	   PAIRS       0      26      26     526     526       0
	 --------------------------------------------------------

	-----------------------------------------------------------
	 ==================> DF-MP2 Energies <==================== 
	-----------------------------------------------------------
	 Reference Energy          =    -308.2889241280410033 [Eh]
	 Singles Energy            =      -0.0000000000000000 [Eh]
	 Same-Spin Energy          =      -0.2994431351993315 [Eh]
	 Opposite-Spin Energy      =      -1.0401175321832627 [Eh]
	 Correlation Energy        =      -1.3395606673825942 [Eh]
	 Total Energy              =    -309.6284847954236170 [Eh]
	-----------------------------------------------------------
	 ================> DF-SCS-MP2 Energies <================== 
	-----------------------------------------------------------
	 SCS Same-Spin Scale       =       0.3333333333333333 [-]
	 SCS Opposite-Spin Scale   =       1.2000000000000000 [-]
	 SCS Same-Spin Energy      =      -0.0998143783997772 [Eh]
	 SCS Opposite-Spin Energy  =      -1.2481410386199152 [Eh]
	 SCS Correlation Energy    =      -1.3479554170196923 [Eh]
	 SCS Total Energy          =    -309.6368795450607081 [Eh]
	-----------------------------------------------------------


*** tstop() called on Moses-MBP.lan at Thu Feb 27 17:31:37 2025
Module time:
	user time   =      30.42 seconds =       0.51 minutes
	system time =       3.20 seconds =       0.05 minutes
	total time  =          5 seconds =       0.08 minutes
Total time:
	user time   =     306.21 seconds =       5.10 minutes
	system time =      29.45 seconds =       0.49 minutes
	total time  =         45 seconds =       0.75 minutes

    Psi4 stopped on: Thursday, 27 February 2025 05:31PM
    Psi4 wall time for execution: 0:00:19.45


  //>>>>>>>>>>>>>>>>>>>>>>>>>>>>>>>>>>>//
  //          ManyBody Results         //
  //<<<<<<<<<<<<<<<<<<<<<<<<<<<<<<<<<<<//


   ==> N-Body: Counterpoise Corrected (CP) energies <==

        n-Body     Total Energy            Interaction Energy                          N-body Contribution to Interaction Energy
                   [Eh]                    [Eh]                  [kcal/mol]            [Eh]                  [kcal/mol]
             1  N/A                         0.000000000000        0.000000000000        0.000000000000        0.000000000000
  FULL/RTN   2  N/A                        -0.003770240187       -2.365861435658       -0.003770240187       -2.365861435658


    Psi4 stopped on: Thursday, 27 February 2025 05:31PM
    Psi4 wall time for execution: 0:00:46.91

*** Psi4 exiting successfully. Buy a developer a beer!
