
    -----------------------------------------------------------------------
          Psi4: An Open-Source Ab Initio Electronic Structure Package
                               Psi4 1.9.1 release

                         Git: Rev {} zzzzzzz 


    D. G. A. Smith, L. A. Burns, A. C. Simmonett, R. M. Parrish,
    M. C. Schieber, R. Galvelis, P. Kraus, H. Kruse, R. Di Remigio,
    A. Alenaizan, A. M. James, S. Lehtola, J. P. Misiewicz, M. Scheurer,
    R. A. Shaw, J. B. Schriber, Y. Xie, Z. L. Glick, D. A. Sirianni,
    J. S. O'Brien, J. M. Waldrop, A. Kumar, E. G. Hohenstein,
    B. P. Pritchard, B. R. Brooks, H. F. Schaefer III, A. Yu. Sokolov,
    K. Patkowski, A. E. DePrince III, U. Bozkaya, R. A. King,
    F. A. Evangelista, J. M. Turney, T. D. Crawford, C. D. Sherrill,
    J. Chem. Phys. 152(18) 184108 (2020). https://doi.org/10.1063/5.0006002

                            Additional Code Authors
    E. T. Seidl, C. L. Janssen, E. F. Valeev, M. L. Leininger,
    J. F. Gonthier, R. M. Richard, H. R. McAlexander, M. Saitow, X. Wang,
    P. Verma, M. H. Lechner, A. Jiang, S. Behnle, A. G. Heide,
    M. F. Herbst, and D. L. Poole

             Previous Authors, Complete List of Code Contributors,
                       and Citations for Specific Modules
    https://github.com/psi4/psi4/blob/master/codemeta.json
    https://github.com/psi4/psi4/graphs/contributors
    http://psicode.org/psi4manual/master/introduction.html#citing-psifour

    -----------------------------------------------------------------------


    Psi4 started on: Thursday, 27 February 2025 05:12PM

    Process ID: 30306
    Host:       Moses-MBP.lan
    PSIDATADIR: /Users/moseschung/miniconda3/envs/psi4/share/psi4
    Memory:     500.0 MiB
    Threads:    10
    
  ==> Input File <==

--------------------------------------------------------------------------
MEMORY 10 GB

molecule dimer {
0 1
C   -2.285309  -0.761088  -0.427513
C   -1.714720   0.631558  -0.309701
O   -1.072778   0.847664   0.919368
H   -0.398112   0.158472   1.022803
H   -2.793669  -0.903055  -1.383934
H   -2.999897  -0.949525   0.376126
H   -1.490434  -1.508978  -0.350374
H   -2.510620   1.378697  -0.382830
H   -1.030152   0.827401  -1.153322
--
0 1
C    2.153779   0.895609  -0.350996
C    1.675674  -0.525792  -0.494537
O    1.106631  -1.028888   0.703835
H    1.772442  -1.000822   1.396537
H    2.547837   1.271404  -1.297171
H    2.954107   0.965752   0.391475
H    1.334010   1.543107  -0.031210
H    2.486286  -1.183106  -0.833936
H    0.880838  -0.591278  -1.243298

units ang
no_reorient
no_com
symmetry c1
}

set {
basis        aug-cc-pVTZ
scf_type     df
}

energy("mp2", bsse_type="cp")
--------------------------------------------------------------------------

  Memory set to   9.313 GiB by Python driver.

Scratch directory: /tmp/

  //>>>>>>>>>>>>>>>>>>>>>>>>>>>>>>>>>>>>>//
  // ManyBody Setup: N-Body Levels [1, 2]//
  //<<<<<<<<<<<<<<<<<<<<<<<<<<<<<<<<<<<<<//

        Number of 1-body computations:     2
        Number of 2-body computations:     1

    -----------------------------------------------------------------------
          Psi4: An Open-Source Ab Initio Electronic Structure Package
                               Psi4 1.9.1 release

                         Git: Rev {} zzzzzzz 


    D. G. A. Smith, L. A. Burns, A. C. Simmonett, R. M. Parrish,
    M. C. Schieber, R. Galvelis, P. Kraus, H. Kruse, R. Di Remigio,
    A. Alenaizan, A. M. James, S. Lehtola, J. P. Misiewicz, M. Scheurer,
    R. A. Shaw, J. B. Schriber, Y. Xie, Z. L. Glick, D. A. Sirianni,
    J. S. O'Brien, J. M. Waldrop, A. Kumar, E. G. Hohenstein,
    B. P. Pritchard, B. R. Brooks, H. F. Schaefer III, A. Yu. Sokolov,
    K. Patkowski, A. E. DePrince III, U. Bozkaya, R. A. King,
    F. A. Evangelista, J. M. Turney, T. D. Crawford, C. D. Sherrill,
    J. Chem. Phys. 152(18) 184108 (2020). https://doi.org/10.1063/5.0006002

                            Additional Code Authors
    E. T. Seidl, C. L. Janssen, E. F. Valeev, M. L. Leininger,
    J. F. Gonthier, R. M. Richard, H. R. McAlexander, M. Saitow, X. Wang,
    P. Verma, M. H. Lechner, A. Jiang, S. Behnle, A. G. Heide,
    M. F. Herbst, and D. L. Poole

             Previous Authors, Complete List of Code Contributors,
                       and Citations for Specific Modules
    https://github.com/psi4/psi4/blob/master/codemeta.json
    https://github.com/psi4/psi4/graphs/contributors
    http://psicode.org/psi4manual/master/introduction.html#citing-psifour

    -----------------------------------------------------------------------


    Psi4 started on: Thursday, 27 February 2025 05:12PM

    Process ID: 30306
    Host:       Moses-MBP.lan
    PSIDATADIR: /Users/moseschung/miniconda3/envs/psi4/share/psi4
    Memory:     9.3 GiB
    Threads:    10
    
  ==> Input QCSchema <==

--------------------------------------------------------------------------
{'driver': 'energy',
 'extras': {'psiapi': True, 'wfn_qcvars_only': True},
 'id': None,
 'keywords': {'SCF_TYPE': 'DF', 'function_kwargs': {}},
 'model': {'basis': 'aug-cc-pvtz', 'method': 'mp2'},
 'molecule': {'atom_labels': ['', '', '', '', '', '', '', '', '', '', '', '', '', '', '', '', '', ''],
              'atomic_numbers': [6, 6, 8, 1, 1, 1, 1, 1, 1, 6, 6, 8, 1, 1, 1, 1, 1, 1],
              'extras': {},
              'fix_com': True,
              'fix_orientation': True,
              'fix_symmetry': 'c1',
              'fragment_charges': [0.0, 0.0],
              'fragment_multiplicities': [1, 1],
              'fragments': [[0, 1, 2, 3, 4, 5, 6, 7, 8], [9, 10, 11, 12, 13, 14, 15, 16, 17]],
              'geometry': [-4.318608122043903, -1.4382478773724474, -0.8078824850728524, -3.240351181845047,
                           1.193471652341895, -0.5852500707804148, -2.027256613416398, 1.6018528064100843,
                           1.7373537285099125, -0.7523226472582669, 0.29946867855355297, 1.932817550296643,
                           -5.279269295181646, -1.7065266262253191, -2.615256235709354, -5.668983734582562,
                           -1.794342199275344, 0.7107751286639511, -2.8165120680706126, -2.8515551493411024,
                           -0.6621109014811611, -4.7443842050969325, 2.6053597399903308, -0.7234438526090203,
                           -1.9467051475926325, 1.5635612859299326, -2.179462714465273, 4.070052444762436,
                           1.69245572549516, -0.6632863111311958, 3.166564935550421, -0.9936028789567224,
                           -0.934539488905538, 2.091229511941522, -1.9443165337700539, 1.3300553875116103,
                           3.349429953258724, -1.8912794803329547, 2.639072454068499, 4.814714142308096,
                           2.4026053548115844, -2.4512979278862566, 5.582453175297848, 1.8250067851131486,
                           0.7397805349636033, 2.5209135486219973, 2.916049612276853, -0.05897835237553882,
                           4.698399609560042, -2.2357463173859093, -1.5759106461597994, 1.6645425808960224,
                           -1.1173534840084536, -2.3494927123294667],
              'mass_numbers': [12, 12, 16, 1, 1, 1, 1, 1, 1, 12, 12, 16, 1, 1, 1, 1, 1, 1],
              'masses': [12.0, 12.0, 15.99491461957, 1.00782503223, 1.00782503223, 1.00782503223, 1.00782503223,
                         1.00782503223, 1.00782503223, 12.0, 12.0, 15.99491461957, 1.00782503223, 1.00782503223,
                         1.00782503223, 1.00782503223, 1.00782503223, 1.00782503223],
              'molecular_charge': 0.0,
              'molecular_multiplicity': 1,
              'name': 'dimer',
              'provenance': {'creator': 'QCElemental',
                             'routine': 'qcelemental.molparse.from_string',
                             'version': '0.29.0'},
              'real': [False, False, False, False, False, False, False, False, False, True, True, True, True, True,
                       True, True, True, True],
              'schema_name': 'qcschema_molecule',
              'schema_version': 2,
              'symbols': ['C', 'C', 'O', 'H', 'H', 'H', 'H', 'H', 'H', 'C', 'C', 'O', 'H', 'H', 'H', 'H', 'H', 'H'],
              'validated': True},
 'protocols': {'stdout': True},
 'provenance': {'creator': 'QCElemental', 'routine': 'qcelemental.models.results', 'version': '0.29.0'},
 'schema_name': 'qcschema_input',
 'schema_version': 1}
--------------------------------------------------------------------------

Scratch directory: /tmp/
   => Libint2 <=

    Primary   basis highest AM E, G, H:  6, 6, 3
    Auxiliary basis highest AM E, G, H:  7, 7, 4
    Onebody   basis highest AM E, G, H:  -, -, -
    Solid Harmonics ordering:            Gaussian

*** tstart() called on Moses-MBP.lan
*** at Thu Feb 27 17:12:53 2025

   => Loading Basis Set <=

    Name: AUG-CC-PVTZ
    Role: ORBITAL
    Keyword: BASIS
    atoms 1-2, 10-11 entry C          line   239 file /Users/moseschung/miniconda3/envs/psi4/share/psi4/basis/aug-cc-pvtz.gbs 
    atoms 3, 12      entry O          line   331 file /Users/moseschung/miniconda3/envs/psi4/share/psi4/basis/aug-cc-pvtz.gbs 
    atoms 4-9, 13-18 entry H          line    40 file /Users/moseschung/miniconda3/envs/psi4/share/psi4/basis/aug-cc-pvtz.gbs 


         ---------------------------------------------------------
                                   SCF
               by Justin Turney, Rob Parrish, Andy Simmonett
                          and Daniel G. A. Smith
                              RHF Reference
                       10 Threads,   9536 MiB Core
         ---------------------------------------------------------

  ==> Geometry <==

    Molecular point group: c1
    Full point group: C1

    Geometry (in Bohr), charge = 0, multiplicity = 1:

       Center              X                  Y                   Z               Mass       
    ------------   -----------------  -----------------  -----------------  -----------------
      Gh(C)          -4.318608122044    -1.438247877372    -0.807882485073    12.000000000000
      Gh(C)          -3.240351181845     1.193471652342    -0.585250070780    12.000000000000
      Gh(O)          -2.027256613416     1.601852806410     1.737353728510    15.994914619570
      Gh(H)          -0.752322647258     0.299468678554     1.932817550297     1.007825032230
      Gh(H)          -5.279269295182    -1.706526626225    -2.615256235709     1.007825032230
      Gh(H)          -5.668983734583    -1.794342199275     0.710775128664     1.007825032230
      Gh(H)          -2.816512068071    -2.851555149341    -0.662110901481     1.007825032230
      Gh(H)          -4.744384205097     2.605359739990    -0.723443852609     1.007825032230
      Gh(H)          -1.946705147593     1.563561285930    -2.179462714465     1.007825032230
         C            4.070052444762     1.692455725495    -0.663286311131    12.000000000000
         C            3.166564935550    -0.993602878957    -0.934539488906    12.000000000000
         O            2.091229511942    -1.944316533770     1.330055387512    15.994914619570
         H            3.349429953259    -1.891279480333     2.639072454068     1.007825032230
         H            4.814714142308     2.402605354812    -2.451297927886     1.007825032230
         H            5.582453175298     1.825006785113     0.739780534964     1.007825032230
         H            2.520913548622     2.916049612277    -0.058978352376     1.007825032230
         H            4.698399609560    -2.235746317386    -1.575910646160     1.007825032230
         H            1.664542580896    -1.117353484008    -2.349492712329     1.007825032230

  Running in c1 symmetry.

  Rotational constants: A =      0.15707  B =      0.05276  C =      0.04859 [cm^-1]
  Rotational constants: A =   4708.89831  B =   1581.57835  C =   1456.74986 [MHz]
  Nuclear repulsion =   81.997518956473357

  Charge       = 0
  Multiplicity = 1
  Electrons    = 26
  Nalpha       = 13
  Nbeta        = 13

  ==> Algorithm <==

  SCF Algorithm Type is DF.
  DIIS enabled.
  MOM disabled.
  Fractional occupation disabled.
  Guess Type is SAD.
  Energy threshold   = 1.00e-08
  Density threshold  = 1.00e-08
  Integral threshold = 1.00e-12

  ==> Primary Basis <==

  Basis Set: AUG-CC-PVTZ
    Blend: AUG-CC-PVTZ
    Number of shells: 192
    Number of basis functions: 552
    Number of Cartesian functions: 630
    Spherical Harmonics?: true
    Max angular momentum: 3

   => Loading Basis Set <=

    Name: (AUG-CC-PVTZ AUX)
    Role: JKFIT
    Keyword: DF_BASIS_SCF
    atoms 1-2, 10-11 entry C          line   162 file /Users/moseschung/miniconda3/envs/psi4/share/psi4/basis/aug-cc-pvtz-jkfit.gbs 
    atoms 3, 12      entry O          line   286 file /Users/moseschung/miniconda3/envs/psi4/share/psi4/basis/aug-cc-pvtz-jkfit.gbs 
    atoms 4-9, 13-18 entry H          line    70 file /Users/moseschung/miniconda3/envs/psi4/share/psi4/basis/aug-cc-pvtz-jkfit.gbs 

  ==> Integral Setup <==

  DFHelper Memory: AOs need 2.656 GiB; user supplied 6.985 GiB. 
  Using in-core AOs.

  ==> MemDFJK: Density-Fitted J/K Matrices <==

    J tasked:                   Yes
    K tasked:                   Yes
    wK tasked:                   No
    OpenMP threads:              10
    Memory [MiB]:              7152
    Algorithm:                 Core
    Schwarz Cutoff:           1E-12
    Mask sparsity (%):       4.0590
    Fitting Condition:        1E-10

   => Auxiliary Basis Set <=

  Basis Set: (AUG-CC-PVTZ AUX)
    Blend: AUG-CC-PVTZ-JKFIT
    Number of shells: 348
    Number of basis functions: 1176
    Number of Cartesian functions: 1446
    Spherical Harmonics?: true
    Max angular momentum: 4

  Minimum eigenvalue in the overlap matrix is 7.2924797795E-06.
  Reciprocal condition number of the overlap matrix is 3.7328088866E-07.
    Using symmetric orthogonalization.

  ==> Pre-Iterations <==

  SCF Guess: Superposition of Atomic Densities via on-the-fly atomic UHF (no occupation information).

   -------------------------
    Irrep   Nso     Nmo    
   -------------------------
     A        552     552 
   -------------------------
    Total     552     552
   -------------------------

  ==> Iterations <==

                           Total Energy        Delta E     RMS |[F,P]|

   @DF-RHF iter SAD:  -153.44001546799879   -1.53440e+02   0.00000e+00 
   @DF-RHF iter   1:  -154.00356752281598   -5.63552e-01   9.37759e-04 ADIIS/DIIS
   @DF-RHF iter   2:  -154.11522048368917   -1.11653e-01   4.97158e-04 ADIIS/DIIS
   @DF-RHF iter   3:  -154.14332928673286   -2.81088e-02   8.42347e-05 DIIS
   @DF-RHF iter   4:  -154.14491117375212   -1.58189e-03   3.23765e-05 DIIS
   @DF-RHF iter   5:  -154.14510054136366   -1.89368e-04   6.21255e-06 DIIS
   @DF-RHF iter   6:  -154.14511086203953   -1.03207e-05   1.42359e-06 DIIS
   @DF-RHF iter   7:  -154.14511159451024   -7.32471e-07   4.06997e-07 DIIS
   @DF-RHF iter   8:  -154.14511164969858   -5.51883e-08   1.28888e-07 DIIS
   @DF-RHF iter   9:  -154.14511165596497   -6.26639e-09   3.30108e-08 DIIS
   @DF-RHF iter  10:  -154.14511165640477   -4.39798e-10   6.38032e-09 DIIS
  Energy and wave function converged.


  ==> Post-Iterations <==

    Orbital Energies [Eh]
    ---------------------

    Doubly Occupied:                                                      

       1A    -20.554499     2A    -11.273896     3A    -11.218397  
       4A     -1.358096     5A     -1.015009     6A     -0.847805  
       7A     -0.686314     8A     -0.624391     9A     -0.609692  
      10A     -0.544754    11A     -0.525306    12A     -0.480696  
      13A     -0.444037  

    Virtual:                                                              

      14A      0.025275    15A      0.032631    16A      0.036016  
      17A      0.037993    18A      0.051252    19A      0.052344  
      20A      0.055464    21A      0.062893    22A      0.067541  
      23A      0.076600    24A      0.077686    25A      0.085520  
      26A      0.100209    27A      0.112482    28A      0.113445  
      29A      0.118473    30A      0.125972    31A      0.128541  
      32A      0.131252    33A      0.141431    34A      0.142293  
      35A      0.146926    36A      0.148624    37A      0.156771  
      38A      0.159779    39A      0.179060    40A      0.183296  
      41A      0.186436    42A      0.193465    43A      0.201830  
      44A      0.211307    45A      0.220168    46A      0.226645  
      47A      0.240692    48A      0.246438    49A      0.255652  
      50A      0.260126    51A      0.273936    52A      0.279086  
      53A      0.284513    54A      0.287012    55A      0.291410  
      56A      0.309219    57A      0.312130    58A      0.318744  
      59A      0.321104    60A      0.327818    61A      0.328597  
      62A      0.338659    63A      0.340299    64A      0.345831  
      65A      0.348490    66A      0.350735    67A      0.362785  
      68A      0.366412    69A      0.375402    70A      0.382645  
      71A      0.386284    72A      0.391494    73A      0.398301  
      74A      0.405542    75A      0.408681    76A      0.417555  
      77A      0.422075    78A      0.427707    79A      0.433496  
      80A      0.437895    81A      0.444268    82A      0.448665  
      83A      0.457875    84A      0.463050    85A      0.465692  
      86A      0.469332    87A      0.476511    88A      0.479190  
      89A      0.488423    90A      0.493530    91A      0.495871  
      92A      0.506241    93A      0.506594    94A      0.512904  
      95A      0.519534    96A      0.529488    97A      0.531768  
      98A      0.545460    99A      0.557705   100A      0.560237  
     101A      0.562657   102A      0.566583   103A      0.572889  
     104A      0.590286   105A      0.591865   106A      0.602402  
     107A      0.608322   108A      0.616740   109A      0.619538  
     110A      0.631838   111A      0.639648   112A      0.641963  
     113A      0.650842   114A      0.661157   115A      0.663247  
     116A      0.671245   117A      0.673936   118A      0.682089  
     119A      0.692411   120A      0.697309   121A      0.704873  
     122A      0.709777   123A      0.727920   124A      0.744975  
     125A      0.757652   126A      0.766611   127A      0.778271  
     128A      0.791152   129A      0.806399   130A      0.808043  
     131A      0.814827   132A      0.827103   133A      0.850060  
     134A      0.854454   135A      0.857554   136A      0.876027  
     137A      0.880405   138A      0.886473   139A      0.895223  
     140A      0.912502   141A      0.915636   142A      0.930663  
     143A      0.936996   144A      0.940839   145A      0.958504  
     146A      0.963979   147A      0.967351   148A      0.970668  
     149A      0.975902   150A      0.982468   151A      0.991838  
     152A      1.004087   153A      1.012639   154A      1.022269  
     155A      1.027430   156A      1.040429   157A      1.045099  
     158A      1.051057   159A      1.057892   160A      1.068424  
     161A      1.079416   162A      1.087592   163A      1.089594  
     164A      1.094970   165A      1.106665   166A      1.109807  
     167A      1.115943   168A      1.118701   169A      1.123507  
     170A      1.131021   171A      1.141460   172A      1.146476  
     173A      1.155681   174A      1.157766   175A      1.166643  
     176A      1.173576   177A      1.183466   178A      1.186116  
     179A      1.193515   180A      1.201915   181A      1.206242  
     182A      1.218293   183A      1.222835   184A      1.224337  
     185A      1.235052   186A      1.242754   187A      1.253201  
     188A      1.257399   189A      1.263800   190A      1.272026  
     191A      1.281464   192A      1.286368   193A      1.298670  
     194A      1.314817   195A      1.322054   196A      1.326767  
     197A      1.335755   198A      1.352216   199A      1.358298  
     200A      1.367914   201A      1.368340   202A      1.379205  
     203A      1.391463   204A      1.394396   205A      1.403631  
     206A      1.417969   207A      1.428697   208A      1.429847  
     209A      1.446753   210A      1.448611   211A      1.456274  
     212A      1.476901   213A      1.477412   214A      1.483200  
     215A      1.489026   216A      1.502216   217A      1.518508  
     218A      1.524313   219A      1.527205   220A      1.548875  
     221A      1.563347   222A      1.571840   223A      1.585664  
     224A      1.596381   225A      1.607337   226A      1.608965  
     227A      1.610835   228A      1.619863   229A      1.631314  
     230A      1.650674   231A      1.661322   232A      1.665482  
     233A      1.686730   234A      1.693452   235A      1.703132  
     236A      1.710716   237A      1.722009   238A      1.735203  
     239A      1.741651   240A      1.748290   241A      1.760714  
     242A      1.781779   243A      1.792109   244A      1.804194  
     245A      1.822504   246A      1.831942   247A      1.842531  
     248A      1.848436   249A      1.857711   250A      1.868057  
     251A      1.869359   252A      1.882665   253A      1.898808  
     254A      1.909340   255A      1.926812   256A      1.927715  
     257A      1.956451   258A      1.960032   259A      1.982230  
     260A      1.995676   261A      2.005854   262A      2.018731  
     263A      2.023662   264A      2.029462   265A      2.038832  
     266A      2.055431   267A      2.063232   268A      2.066545  
     269A      2.077388   270A      2.084985   271A      2.098118  
     272A      2.120490   273A      2.133139   274A      2.144906  
     275A      2.156460   276A      2.167964   277A      2.175430  
     278A      2.186598   279A      2.188907   280A      2.202111  
     281A      2.219255   282A      2.225782   283A      2.240465  
     284A      2.258732   285A      2.259667   286A      2.277097  
     287A      2.285877   288A      2.294749   289A      2.310280  
     290A      2.345753   291A      2.356219   292A      2.362421  
     293A      2.373911   294A      2.402853   295A      2.426702  
     296A      2.437876   297A      2.455720   298A      2.464211  
     299A      2.484146   300A      2.494799   301A      2.517155  
     302A      2.531208   303A      2.559167   304A      2.597563  
     305A      2.615659   306A      2.632501   307A      2.664047  
     308A      2.692221   309A      2.704832   310A      2.724115  
     311A      2.729260   312A      2.762806   313A      2.772667  
     314A      2.781051   315A      2.825007   316A      2.842845  
     317A      2.873254   318A      2.879881   319A      2.912141  
     320A      2.918375   321A      2.926346   322A      2.947688  
     323A      2.954608   324A      2.987621   325A      3.005972  
     326A      3.043483   327A      3.075888   328A      3.082496  
     329A      3.117187   330A      3.141186   331A      3.153490  
     332A      3.175830   333A      3.193737   334A      3.258226  
     335A      3.272265   336A      3.286898   337A      3.335271  
     338A      3.399600   339A      3.439161   340A      3.458968  
     341A      3.474193   342A      3.522709   343A      3.528046  
     344A      3.563694   345A      3.580460   346A      3.601160  
     347A      3.638423   348A      3.659582   349A      3.680223  
     350A      3.695530   351A      3.698617   352A      3.728486  
     353A      3.732824   354A      3.754935   355A      3.793073  
     356A      3.803374   357A      3.815872   358A      3.833278  
     359A      3.860945   360A      3.882939   361A      3.908252  
     362A      3.949298   363A      3.971101   364A      3.977740  
     365A      3.988631   366A      4.002645   367A      4.014598  
     368A      4.019810   369A      4.057009   370A      4.099543  
     371A      4.126280   372A      4.138337   373A      4.141014  
     374A      4.151883   375A      4.173819   376A      4.180842  
     377A      4.193025   378A      4.199739   379A      4.213291  
     380A      4.232101   381A      4.248205   382A      4.255435  
     383A      4.281298   384A      4.285478   385A      4.309885  
     386A      4.332048   387A      4.337348   388A      4.364820  
     389A      4.375070   390A      4.385309   391A      4.439138  
     392A      4.453520   393A      4.461072   394A      4.486299  
     395A      4.492297   396A      4.519088   397A      4.533634  
     398A      4.539642   399A      4.563316   400A      4.588459  
     401A      4.614598   402A      4.622502   403A      4.639502  
     404A      4.654692   405A      4.661732   406A      4.671100  
     407A      4.695316   408A      4.714139   409A      4.717860  
     410A      4.739688   411A      4.744408   412A      4.766376  
     413A      4.782601   414A      4.792762   415A      4.807678  
     416A      4.828435   417A      4.850491   418A      4.870278  
     419A      4.873998   420A      4.890129   421A      4.899036  
     422A      4.925476   423A      4.932382   424A      4.962993  
     425A      4.977952   426A      5.001498   427A      5.020331  
     428A      5.026754   429A      5.038348   430A      5.058336  
     431A      5.076845   432A      5.080464   433A      5.115976  
     434A      5.125874   435A      5.143416   436A      5.157138  
     437A      5.177734   438A      5.204191   439A      5.207560  
     440A      5.218297   441A      5.237769   442A      5.247041  
     443A      5.258611   444A      5.277999   445A      5.325044  
     446A      5.353494   447A      5.374035   448A      5.397992  
     449A      5.412743   450A      5.421286   451A      5.441761  
     452A      5.447584   453A      5.472397   454A      5.478116  
     455A      5.509235   456A      5.526522   457A      5.542707  
     458A      5.550448   459A      5.568061   460A      5.588242  
     461A      5.600744   462A      5.627436   463A      5.642443  
     464A      5.650439   465A      5.660769   466A      5.693175  
     467A      5.703065   468A      5.718785   469A      5.727917  
     470A      5.751703   471A      5.773208   472A      5.802783  
     473A      5.806558   474A      5.820215   475A      5.879499  
     476A      5.916964   477A      5.929529   478A      5.971601  
     479A      6.020391   480A      6.039357   481A      6.098091  
     482A      6.106501   483A      6.143360   484A      6.173648  
     485A      6.183912   486A      6.228072   487A      6.250107  
     488A      6.281600   489A      6.290499   490A      6.310232  
     491A      6.357514   492A      6.383089   493A      6.439315  
     494A      6.489080   495A      6.552541   496A      6.756022  
     497A      6.793977   498A      6.816032   499A      6.836636  
     500A      6.875625   501A      6.915432   502A      6.984165  
     503A      7.017622   504A      7.061492   505A      7.138503  
     506A      7.161848   507A      7.173268   508A      7.189983  
     509A      7.323224   510A      7.363779   511A      7.387560  
     512A      7.478713   513A      7.551013   514A      7.570458  
     515A      7.723927   516A      7.797236   517A      7.843641  
     518A      7.874050   519A      7.882654   520A      7.901661  
     521A      7.949475   522A      7.975856   523A      8.001613  
     524A      8.087282   525A      8.197504   526A      8.229401  
     527A      8.293945   528A      8.332067   529A      8.347349  
     530A      8.461381   531A      8.485773   532A      8.675600  
     533A      8.687632   534A      8.961575   535A      9.088104  
     536A     10.068936   537A     10.156555   538A     10.315581  
     539A     10.434771   540A     10.673123   541A     10.828631  
     542A     11.154372   543A     12.132828   544A     12.518677  
     545A     13.356200   546A     14.385893   547A     16.613553  
     548A     17.876710   549A     18.780620   550A     52.993707  
     551A     54.347493   552A     68.327289  

    Final Occupation by Irrep:
              A 
    DOCC [    13 ]
    NA   [    13 ]
    NB   [    13 ]

  @DF-RHF Final Energy:  -154.14511165640477

   => Energetics <=

    Nuclear Repulsion Energy =             81.9975189564733569
    One-Electron Energy =                -371.9194708770095303
    Two-Electron Energy =                 135.7768402641314083
    Total Energy =                       -154.1451116564047652

Computation Completed


Properties will be evaluated at   0.000000,   0.000000,   0.000000 [a0]

Properties computed using the SCF density matrix


 Multipole Moments:

 ------------------------------------------------------------------------------------
     Multipole            Electronic (a.u.)      Nuclear  (a.u.)        Total (a.u.)
 ------------------------------------------------------------------------------------

 L = 1.  Multiply by 2.5417464519 to convert [e a0] to [Debye]
 Dipole X            :        -82.1298620           82.7799934            0.6501314
 Dipole Y            :          9.7425433           -9.4621327            0.2804105
 Dipole Z            :          1.8913329           -2.0033383           -0.1120055
 Magnitude           :                                                    0.7168306

 ------------------------------------------------------------------------------------

*** tstop() called on Moses-MBP.lan at Thu Feb 27 17:13:02 2025
Module time:
	user time   =      72.31 seconds =       1.21 minutes
	system time =       4.97 seconds =       0.08 minutes
	total time  =          9 seconds =       0.15 minutes
Total time:
	user time   =      72.31 seconds =       1.21 minutes
	system time =       4.97 seconds =       0.08 minutes
	total time  =          9 seconds =       0.15 minutes

*** tstart() called on Moses-MBP.lan
*** at Thu Feb 27 17:13:02 2025


  //>>>>>>>>>>>>>>>>>>>>>>>>>>>>>>>>>>>//
  //               DFMP2               //
  //<<<<<<<<<<<<<<<<<<<<<<<<<<<<<<<<<<<//

   => Loading Basis Set <=

    Name: (AUG-CC-PVTZ AUX)
    Role: RIFIT
    Keyword: DF_BASIS_MP2
    atoms 1-2, 10-11 entry C          line   148 file /Users/moseschung/miniconda3/envs/psi4/share/psi4/basis/aug-cc-pvtz-ri.gbs 
    atoms 3, 12      entry O          line   264 file /Users/moseschung/miniconda3/envs/psi4/share/psi4/basis/aug-cc-pvtz-ri.gbs 
    atoms 4-9, 13-18 entry H          line    30 file /Users/moseschung/miniconda3/envs/psi4/share/psi4/basis/aug-cc-pvtz-ri.gbs 

	 --------------------------------------------------------
	                          DF-MP2                         
	      2nd-Order Density-Fitted Moller-Plesset Theory     
	              RMP2 Wavefunction,  10 Threads             
	                                                         
	        Rob Parrish, Justin Turney, Andy Simmonett,      
	           Ed Hohenstein, and C. David Sherrill          
	 --------------------------------------------------------

   => Auxiliary Basis Set <=

  Basis Set: (AUG-CC-PVTZ AUX)
    Blend: AUG-CC-PVTZ-RI
    Number of shells: 336
    Number of basis functions: 1188
    Number of Cartesian functions: 1476
    Spherical Harmonics?: true
    Max angular momentum: 4

	 --------------------------------------------------------
	                 NBF =   552, NAUX =  1188
	 --------------------------------------------------------
	   CLASS    FOCC     OCC    AOCC    AVIR     VIR    FVIR
	   PAIRS       0      13      13     539     539       0
	 --------------------------------------------------------

	-----------------------------------------------------------
	 ==================> DF-MP2 Energies <==================== 
	-----------------------------------------------------------
	 Reference Energy          =    -154.1451116564047652 [Eh]
	 Singles Energy            =      -0.0000000000000000 [Eh]
	 Same-Spin Energy          =      -0.1482591145363032 [Eh]
	 Opposite-Spin Energy      =      -0.5189819207809367 [Eh]
	 Correlation Energy        =      -0.6672410353172400 [Eh]
	 Total Energy              =    -154.8123526917219976 [Eh]
	-----------------------------------------------------------
	 ================> DF-SCS-MP2 Energies <================== 
	-----------------------------------------------------------
	 SCS Same-Spin Scale       =       0.3333333333333333 [-]
	 SCS Opposite-Spin Scale   =       1.2000000000000000 [-]
	 SCS Same-Spin Energy      =      -0.0494197048454344 [Eh]
	 SCS Opposite-Spin Energy  =      -0.6227783049371240 [Eh]
	 SCS Correlation Energy    =      -0.6721980097825584 [Eh]
	 SCS Total Energy          =    -154.8173096661873274 [Eh]
	-----------------------------------------------------------


*** tstop() called on Moses-MBP.lan at Thu Feb 27 17:13:05 2025
Module time:
	user time   =      20.26 seconds =       0.34 minutes
	system time =       1.77 seconds =       0.03 minutes
	total time  =          3 seconds =       0.05 minutes
Total time:
	user time   =      92.58 seconds =       1.54 minutes
	system time =       6.74 seconds =       0.11 minutes
	total time  =         12 seconds =       0.20 minutes

    Psi4 stopped on: Thursday, 27 February 2025 05:13PM
    Psi4 wall time for execution: 0:00:12.33


    -----------------------------------------------------------------------
          Psi4: An Open-Source Ab Initio Electronic Structure Package
                               Psi4 1.9.1 release

                         Git: Rev {} zzzzzzz 


    D. G. A. Smith, L. A. Burns, A. C. Simmonett, R. M. Parrish,
    M. C. Schieber, R. Galvelis, P. Kraus, H. Kruse, R. Di Remigio,
    A. Alenaizan, A. M. James, S. Lehtola, J. P. Misiewicz, M. Scheurer,
    R. A. Shaw, J. B. Schriber, Y. Xie, Z. L. Glick, D. A. Sirianni,
    J. S. O'Brien, J. M. Waldrop, A. Kumar, E. G. Hohenstein,
    B. P. Pritchard, B. R. Brooks, H. F. Schaefer III, A. Yu. Sokolov,
    K. Patkowski, A. E. DePrince III, U. Bozkaya, R. A. King,
    F. A. Evangelista, J. M. Turney, T. D. Crawford, C. D. Sherrill,
    J. Chem. Phys. 152(18) 184108 (2020). https://doi.org/10.1063/5.0006002

                            Additional Code Authors
    E. T. Seidl, C. L. Janssen, E. F. Valeev, M. L. Leininger,
    J. F. Gonthier, R. M. Richard, H. R. McAlexander, M. Saitow, X. Wang,
    P. Verma, M. H. Lechner, A. Jiang, S. Behnle, A. G. Heide,
    M. F. Herbst, and D. L. Poole

             Previous Authors, Complete List of Code Contributors,
                       and Citations for Specific Modules
    https://github.com/psi4/psi4/blob/master/codemeta.json
    https://github.com/psi4/psi4/graphs/contributors
    http://psicode.org/psi4manual/master/introduction.html#citing-psifour

    -----------------------------------------------------------------------


    Psi4 started on: Thursday, 27 February 2025 05:12PM

    Process ID: 30306
    Host:       Moses-MBP.lan
    PSIDATADIR: /Users/moseschung/miniconda3/envs/psi4/share/psi4
    Memory:     9.3 GiB
    Threads:    10
    
  ==> Input QCSchema <==

--------------------------------------------------------------------------
{'driver': 'energy',
 'extras': {'psiapi': True, 'wfn_qcvars_only': True},
 'id': None,
 'keywords': {'SCF_TYPE': 'DF', 'function_kwargs': {}},
 'model': {'basis': 'aug-cc-pvtz', 'method': 'mp2'},
 'molecule': {'atom_labels': ['', '', '', '', '', '', '', '', '', '', '', '', '', '', '', '', '', ''],
              'atomic_numbers': [6, 6, 8, 1, 1, 1, 1, 1, 1, 6, 6, 8, 1, 1, 1, 1, 1, 1],
              'extras': {},
              'fix_com': True,
              'fix_orientation': True,
              'fix_symmetry': 'c1',
              'fragment_charges': [0.0, 0.0],
              'fragment_multiplicities': [1, 1],
              'fragments': [[0, 1, 2, 3, 4, 5, 6, 7, 8], [9, 10, 11, 12, 13, 14, 15, 16, 17]],
              'geometry': [-4.318608122043903, -1.4382478773724474, -0.8078824850728524, -3.240351181845047,
                           1.193471652341895, -0.5852500707804148, -2.027256613416398, 1.6018528064100843,
                           1.7373537285099125, -0.7523226472582669, 0.29946867855355297, 1.932817550296643,
                           -5.279269295181646, -1.7065266262253191, -2.615256235709354, -5.668983734582562,
                           -1.794342199275344, 0.7107751286639511, -2.8165120680706126, -2.8515551493411024,
                           -0.6621109014811611, -4.7443842050969325, 2.6053597399903308, -0.7234438526090203,
                           -1.9467051475926325, 1.5635612859299326, -2.179462714465273, 4.070052444762436,
                           1.69245572549516, -0.6632863111311958, 3.166564935550421, -0.9936028789567224,
                           -0.934539488905538, 2.091229511941522, -1.9443165337700539, 1.3300553875116103,
                           3.349429953258724, -1.8912794803329547, 2.639072454068499, 4.814714142308096,
                           2.4026053548115844, -2.4512979278862566, 5.582453175297848, 1.8250067851131486,
                           0.7397805349636033, 2.5209135486219973, 2.916049612276853, -0.05897835237553882,
                           4.698399609560042, -2.2357463173859093, -1.5759106461597994, 1.6645425808960224,
                           -1.1173534840084536, -2.3494927123294667],
              'mass_numbers': [12, 12, 16, 1, 1, 1, 1, 1, 1, 12, 12, 16, 1, 1, 1, 1, 1, 1],
              'masses': [12.0, 12.0, 15.99491461957, 1.00782503223, 1.00782503223, 1.00782503223, 1.00782503223,
                         1.00782503223, 1.00782503223, 12.0, 12.0, 15.99491461957, 1.00782503223, 1.00782503223,
                         1.00782503223, 1.00782503223, 1.00782503223, 1.00782503223],
              'molecular_charge': 0.0,
              'molecular_multiplicity': 1,
              'name': 'dimer',
              'provenance': {'creator': 'QCElemental',
                             'routine': 'qcelemental.molparse.from_string',
                             'version': '0.29.0'},
              'real': [True, True, True, True, True, True, True, True, True, False, False, False, False, False, False,
                       False, False, False],
              'schema_name': 'qcschema_molecule',
              'schema_version': 2,
              'symbols': ['C', 'C', 'O', 'H', 'H', 'H', 'H', 'H', 'H', 'C', 'C', 'O', 'H', 'H', 'H', 'H', 'H', 'H'],
              'validated': True},
 'protocols': {'stdout': True},
 'provenance': {'creator': 'QCElemental', 'routine': 'qcelemental.models.results', 'version': '0.29.0'},
 'schema_name': 'qcschema_input',
 'schema_version': 1}
--------------------------------------------------------------------------

Scratch directory: /tmp/
   => Libint2 <=

    Primary   basis highest AM E, G, H:  6, 6, 3
    Auxiliary basis highest AM E, G, H:  7, 7, 4
    Onebody   basis highest AM E, G, H:  -, -, -
    Solid Harmonics ordering:            Gaussian

*** tstart() called on Moses-MBP.lan
*** at Thu Feb 27 17:13:05 2025

   => Loading Basis Set <=

    Name: AUG-CC-PVTZ
    Role: ORBITAL
    Keyword: BASIS
    atoms 1-2, 10-11 entry C          line   239 file /Users/moseschung/miniconda3/envs/psi4/share/psi4/basis/aug-cc-pvtz.gbs 
    atoms 3, 12      entry O          line   331 file /Users/moseschung/miniconda3/envs/psi4/share/psi4/basis/aug-cc-pvtz.gbs 
    atoms 4-9, 13-18 entry H          line    40 file /Users/moseschung/miniconda3/envs/psi4/share/psi4/basis/aug-cc-pvtz.gbs 


         ---------------------------------------------------------
                                   SCF
               by Justin Turney, Rob Parrish, Andy Simmonett
                          and Daniel G. A. Smith
                              RHF Reference
                       10 Threads,   9536 MiB Core
         ---------------------------------------------------------

  ==> Geometry <==

    Molecular point group: c1
    Full point group: C1

    Geometry (in Bohr), charge = 0, multiplicity = 1:

       Center              X                  Y                   Z               Mass       
    ------------   -----------------  -----------------  -----------------  -----------------
         C           -4.318608122044    -1.438247877372    -0.807882485073    12.000000000000
         C           -3.240351181845     1.193471652342    -0.585250070780    12.000000000000
         O           -2.027256613416     1.601852806410     1.737353728510    15.994914619570
         H           -0.752322647258     0.299468678554     1.932817550297     1.007825032230
         H           -5.279269295182    -1.706526626225    -2.615256235709     1.007825032230
         H           -5.668983734583    -1.794342199275     0.710775128664     1.007825032230
         H           -2.816512068071    -2.851555149341    -0.662110901481     1.007825032230
         H           -4.744384205097     2.605359739990    -0.723443852609     1.007825032230
         H           -1.946705147593     1.563561285930    -2.179462714465     1.007825032230
      Gh(C)           4.070052444762     1.692455725495    -0.663286311131    12.000000000000
      Gh(C)           3.166564935550    -0.993602878957    -0.934539488906    12.000000000000
      Gh(O)           2.091229511942    -1.944316533770     1.330055387512    15.994914619570
      Gh(H)           3.349429953259    -1.891279480333     2.639072454068     1.007825032230
      Gh(H)           4.814714142308     2.402605354812    -2.451297927886     1.007825032230
      Gh(H)           5.582453175298     1.825006785113     0.739780534964     1.007825032230
      Gh(H)           2.520913548622     2.916049612277    -0.058978352376     1.007825032230
      Gh(H)           4.698399609560    -2.235746317386    -1.575910646160     1.007825032230
      Gh(H)           1.664542580896    -1.117353484008    -2.349492712329     1.007825032230

  Running in c1 symmetry.

  Rotational constants: A =      0.15707  B =      0.05276  C =      0.04859 [cm^-1]
  Rotational constants: A =   4708.89831  B =   1581.57835  C =   1456.74986 [MHz]
  Nuclear repulsion =   82.212767393093017

  Charge       = 0
  Multiplicity = 1
  Electrons    = 26
  Nalpha       = 13
  Nbeta        = 13

  ==> Algorithm <==

  SCF Algorithm Type is DF.
  DIIS enabled.
  MOM disabled.
  Fractional occupation disabled.
  Guess Type is SAD.
  Energy threshold   = 1.00e-08
  Density threshold  = 1.00e-08
  Integral threshold = 1.00e-12

  ==> Primary Basis <==

  Basis Set: AUG-CC-PVTZ
    Blend: AUG-CC-PVTZ
    Number of shells: 192
    Number of basis functions: 552
    Number of Cartesian functions: 630
    Spherical Harmonics?: true
    Max angular momentum: 3

   => Loading Basis Set <=

    Name: (AUG-CC-PVTZ AUX)
    Role: JKFIT
    Keyword: DF_BASIS_SCF
    atoms 1-2, 10-11 entry C          line   162 file /Users/moseschung/miniconda3/envs/psi4/share/psi4/basis/aug-cc-pvtz-jkfit.gbs 
    atoms 3, 12      entry O          line   286 file /Users/moseschung/miniconda3/envs/psi4/share/psi4/basis/aug-cc-pvtz-jkfit.gbs 
    atoms 4-9, 13-18 entry H          line    70 file /Users/moseschung/miniconda3/envs/psi4/share/psi4/basis/aug-cc-pvtz-jkfit.gbs 

  ==> Integral Setup <==

  DFHelper Memory: AOs need 2.656 GiB; user supplied 6.985 GiB. 
  Using in-core AOs.

  ==> MemDFJK: Density-Fitted J/K Matrices <==

    J tasked:                   Yes
    K tasked:                   Yes
    wK tasked:                   No
    OpenMP threads:              10
    Memory [MiB]:              7152
    Algorithm:                 Core
    Schwarz Cutoff:           1E-12
    Mask sparsity (%):       4.0590
    Fitting Condition:        1E-10

   => Auxiliary Basis Set <=

  Basis Set: (AUG-CC-PVTZ AUX)
    Blend: AUG-CC-PVTZ-JKFIT
    Number of shells: 348
    Number of basis functions: 1176
    Number of Cartesian functions: 1446
    Spherical Harmonics?: true
    Max angular momentum: 4

  Minimum eigenvalue in the overlap matrix is 7.2924797795E-06.
  Reciprocal condition number of the overlap matrix is 3.7328088866E-07.
    Using symmetric orthogonalization.

  ==> Pre-Iterations <==

  SCF Guess: Superposition of Atomic Densities via on-the-fly atomic UHF (no occupation information).

   -------------------------
    Irrep   Nso     Nmo    
   -------------------------
     A        552     552 
   -------------------------
    Total     552     552
   -------------------------

  ==> Iterations <==

                           Total Energy        Delta E     RMS |[F,P]|

   @DF-RHF iter SAD:  -153.46223814517234   -1.53462e+02   0.00000e+00 
   @DF-RHF iter   1:  -154.00273531846102   -5.40497e-01   9.36428e-04 ADIIS/DIIS
   @DF-RHF iter   2:  -154.11471576672912   -1.11980e-01   4.95509e-04 ADIIS/DIIS
   @DF-RHF iter   3:  -154.14273110083320   -2.80153e-02   8.40088e-05 DIIS
   @DF-RHF iter   4:  -154.14431888923008   -1.58779e-03   3.22106e-05 DIIS
   @DF-RHF iter   5:  -154.14450682930951   -1.87940e-04   6.27131e-06 DIIS
   @DF-RHF iter   6:  -154.14451736906170   -1.05398e-05   1.46189e-06 DIIS
   @DF-RHF iter   7:  -154.14451814662706   -7.77565e-07   4.20671e-07 DIIS
   @DF-RHF iter   8:  -154.14451820627588   -5.96488e-08   1.32741e-07 DIIS
   @DF-RHF iter   9:  -154.14451821289006   -6.61419e-09   3.39024e-08 DIIS
   @DF-RHF iter  10:  -154.14451821334393   -4.53866e-10   6.48253e-09 DIIS
  Energy and wave function converged.


  ==> Post-Iterations <==

    Orbital Energies [Eh]
    ---------------------

    Doubly Occupied:                                                      

       1A    -20.557280     2A    -11.273435     3A    -11.218597  
       4A     -1.363437     5A     -1.013388     6A     -0.847720  
       7A     -0.686096     8A     -0.627408     9A     -0.612810  
      10A     -0.543712    11A     -0.527980    12A     -0.480764  
      13A     -0.441311  

    Virtual:                                                              

      14A      0.020221    15A      0.034132    16A      0.034918  
      17A      0.037971    18A      0.051097    19A      0.052493  
      20A      0.052986    21A      0.064306    22A      0.064964  
      23A      0.076511    24A      0.079830    25A      0.081867  
      26A      0.090591    27A      0.108265    28A      0.112267  
      29A      0.117984    30A      0.122450    31A      0.128076  
      32A      0.131761    33A      0.139367    34A      0.140419  
      35A      0.145325    36A      0.147954    37A      0.152990  
      38A      0.158534    39A      0.174269    40A      0.181233  
      41A      0.185413    42A      0.192652    43A      0.197949  
      44A      0.212702    45A      0.220889    46A      0.226187  
      47A      0.236782    48A      0.241944    49A      0.249025  
      50A      0.260117    51A      0.267935    52A      0.275240  
      53A      0.282303    54A      0.284244    55A      0.293337  
      56A      0.306913    57A      0.308962    58A      0.316256  
      59A      0.321495    60A      0.326911    61A      0.329179  
      62A      0.333851    63A      0.339455    64A      0.342166  
      65A      0.346070    66A      0.348962    67A      0.354652  
      68A      0.360730    69A      0.372978    70A      0.375739  
      71A      0.387052    72A      0.390755    73A      0.391988  
      74A      0.397074    75A      0.405406    76A      0.412732  
      77A      0.416960    78A      0.422181    79A      0.432023  
      80A      0.436440    81A      0.440968    82A      0.443936  
      83A      0.451911    84A      0.455210    85A      0.460564  
      86A      0.462524    87A      0.473427    88A      0.476614  
      89A      0.485031    90A      0.493029    91A      0.494903  
      92A      0.505768    93A      0.510868    94A      0.515936  
      95A      0.518157    96A      0.522885    97A      0.532477  
      98A      0.537986    99A      0.547840   100A      0.551278  
     101A      0.564740   102A      0.570681   103A      0.577895  
     104A      0.581039   105A      0.586367   106A      0.596741  
     107A      0.604301   108A      0.618636   109A      0.619753  
     110A      0.623675   111A      0.629125   112A      0.631795  
     113A      0.636768   114A      0.650791   115A      0.658756  
     116A      0.661341   117A      0.671371   118A      0.682277  
     119A      0.692143   120A      0.697763   121A      0.706782  
     122A      0.717142   123A      0.721119   124A      0.738703  
     125A      0.748534   126A      0.760545   127A      0.773052  
     128A      0.780628   129A      0.787028   130A      0.802048  
     131A      0.819019   132A      0.830088   133A      0.835927  
     134A      0.850364   135A      0.856551   136A      0.861047  
     137A      0.873218   138A      0.876681   139A      0.886149  
     140A      0.894005   141A      0.909929   142A      0.913334  
     143A      0.920299   144A      0.934223   145A      0.953673  
     146A      0.960683   147A      0.966203   148A      0.974464  
     149A      0.980648   150A      0.988671   151A      0.995125  
     152A      1.000650   153A      1.010307   154A      1.012364  
     155A      1.021177   156A      1.027384   157A      1.034364  
     158A      1.044648   159A      1.053932   160A      1.059369  
     161A      1.065867   162A      1.077894   163A      1.085742  
     164A      1.090310   165A      1.097549   166A      1.099348  
     167A      1.107615   168A      1.114209   169A      1.121045  
     170A      1.123657   171A      1.140356   172A      1.148487  
     173A      1.149172   174A      1.161284   175A      1.164411  
     176A      1.171568   177A      1.176475   178A      1.182767  
     179A      1.189564   180A      1.199057   181A      1.204903  
     182A      1.215569   183A      1.219235   184A      1.224386  
     185A      1.230553   186A      1.238047   187A      1.238936  
     188A      1.249720   189A      1.259292   190A      1.267969  
     191A      1.275292   192A      1.286425   193A      1.295179  
     194A      1.305574   195A      1.318544   196A      1.324007  
     197A      1.326922   198A      1.336932   199A      1.341971  
     200A      1.359552   201A      1.368927   202A      1.373931  
     203A      1.381236   204A      1.386618   205A      1.394563  
     206A      1.401061   207A      1.415014   208A      1.423126  
     209A      1.434571   210A      1.442606   211A      1.451088  
     212A      1.454818   213A      1.480626   214A      1.483622  
     215A      1.487884   216A      1.495368   217A      1.510986  
     218A      1.522412   219A      1.530450   220A      1.541223  
     221A      1.548392   222A      1.556955   223A      1.560476  
     224A      1.571384   225A      1.591148   226A      1.591863  
     227A      1.613028   228A      1.613836   229A      1.630472  
     230A      1.644249   231A      1.647690   232A      1.662039  
     233A      1.688441   234A      1.689881   235A      1.702142  
     236A      1.707417   237A      1.715096   238A      1.726181  
     239A      1.742800   240A      1.746881   241A      1.760643  
     242A      1.767754   243A      1.783868   244A      1.795242  
     245A      1.797598   246A      1.804006   247A      1.818513  
     248A      1.830359   249A      1.838471   250A      1.853578  
     251A      1.860190   252A      1.868540   253A      1.877185  
     254A      1.887283   255A      1.903035   256A      1.923698  
     257A      1.938555   258A      1.946399   259A      1.958754  
     260A      1.964598   261A      1.992046   262A      1.996890  
     263A      2.023429   264A      2.029732   265A      2.033442  
     266A      2.036552   267A      2.058431   268A      2.064228  
     269A      2.078516   270A      2.092157   271A      2.102150  
     272A      2.107570   273A      2.110580   274A      2.138619  
     275A      2.143839   276A      2.154002   277A      2.172625  
     278A      2.181699   279A      2.188520   280A      2.196459  
     281A      2.215745   282A      2.233300   283A      2.238601  
     284A      2.248423   285A      2.256589   286A      2.279311  
     287A      2.284257   288A      2.290691   289A      2.298160  
     290A      2.302976   291A      2.328443   292A      2.339805  
     293A      2.361331   294A      2.378693   295A      2.408632  
     296A      2.425652   297A      2.448745   298A      2.475743  
     299A      2.480549   300A      2.490298   301A      2.507170  
     302A      2.528988   303A      2.552059   304A      2.579768  
     305A      2.613501   306A      2.639807   307A      2.654671  
     308A      2.668199   309A      2.707445   310A      2.727683  
     311A      2.744856   312A      2.767322   313A      2.778387  
     314A      2.784659   315A      2.813359   316A      2.822778  
     317A      2.831765   318A      2.860567   319A      2.877686  
     320A      2.885325   321A      2.908715   322A      2.941072  
     323A      2.969403   324A      2.981588   325A      3.026098  
     326A      3.077394   327A      3.096235   328A      3.100339  
     329A      3.108814   330A      3.133714   331A      3.145956  
     332A      3.196427   333A      3.210365   334A      3.240924  
     335A      3.253459   336A      3.276060   337A      3.335282  
     338A      3.341184   339A      3.387754   340A      3.422807  
     341A      3.465308   342A      3.481359   343A      3.504618  
     344A      3.522485   345A      3.533596   346A      3.563142  
     347A      3.578538   348A      3.612114   349A      3.640001  
     350A      3.670229   351A      3.681793   352A      3.689713  
     353A      3.716008   354A      3.725106   355A      3.757790  
     356A      3.784186   357A      3.814796   358A      3.821087  
     359A      3.836724   360A      3.840404   361A      3.903557  
     362A      3.934855   363A      3.941331   364A      3.964735  
     365A      3.972774   366A      3.985557   367A      3.998396  
     368A      4.022129   369A      4.059862   370A      4.079782  
     371A      4.094132   372A      4.134886   373A      4.149281  
     374A      4.159816   375A      4.171020   376A      4.178682  
     377A      4.186320   378A      4.211419   379A      4.220522  
     380A      4.224685   381A      4.236135   382A      4.247654  
     383A      4.276442   384A      4.300358   385A      4.313053  
     386A      4.319970   387A      4.348030   388A      4.370278  
     389A      4.378373   390A      4.397969   391A      4.423925  
     392A      4.444141   393A      4.464548   394A      4.477356  
     395A      4.495828   396A      4.506528   397A      4.523431  
     398A      4.545937   399A      4.548979   400A      4.581681  
     401A      4.583920   402A      4.609081   403A      4.613616  
     404A      4.641340   405A      4.645819   406A      4.668278  
     407A      4.671007   408A      4.695634   409A      4.715763  
     410A      4.728941   411A      4.740651   412A      4.767435  
     413A      4.779379   414A      4.781317   415A      4.821767  
     416A      4.830673   417A      4.834439   418A      4.850132  
     419A      4.876211   420A      4.881374   421A      4.896898  
     422A      4.914628   423A      4.940440   424A      4.951212  
     425A      4.968682   426A      4.991666   427A      5.012105  
     428A      5.019070   429A      5.028732   430A      5.053980  
     431A      5.056216   432A      5.068724   433A      5.084789  
     434A      5.099534   435A      5.122534   436A      5.147237  
     437A      5.170469   438A      5.197509   439A      5.209587  
     440A      5.220758   441A      5.228033   442A      5.244129  
     443A      5.269447   444A      5.300884   445A      5.319481  
     446A      5.338708   447A      5.351417   448A      5.363706  
     449A      5.387332   450A      5.398390   451A      5.403636  
     452A      5.437619   453A      5.447097   454A      5.463885  
     455A      5.484524   456A      5.523896   457A      5.544603  
     458A      5.562027   459A      5.571563   460A      5.576194  
     461A      5.586846   462A      5.601844   463A      5.635626  
     464A      5.650483   465A      5.661677   466A      5.664459  
     467A      5.699187   468A      5.710859   469A      5.726818  
     470A      5.729911   471A      5.762024   472A      5.784552  
     473A      5.794911   474A      5.835120   475A      5.862338  
     476A      5.867517   477A      5.926482   478A      5.986983  
     479A      6.012638   480A      6.031094   481A      6.063644  
     482A      6.096901   483A      6.130911   484A      6.139283  
     485A      6.187635   486A      6.203908   487A      6.227793  
     488A      6.257718   489A      6.289541   490A      6.312546  
     491A      6.325928   492A      6.367023   493A      6.422353  
     494A      6.479883   495A      6.564451   496A      6.752394  
     497A      6.784731   498A      6.796082   499A      6.823241  
     500A      6.872689   501A      6.894432   502A      6.971550  
     503A      7.013897   504A      7.035786   505A      7.048595  
     506A      7.111440   507A      7.163315   508A      7.192270  
     509A      7.237392   510A      7.372810   511A      7.434662  
     512A      7.479898   513A      7.568507   514A      7.605919  
     515A      7.695360   516A      7.798685   517A      7.838160  
     518A      7.862255   519A      7.877234   520A      7.892093  
     521A      7.944069   522A      7.999434   523A      8.052215  
     524A      8.078387   525A      8.170466   526A      8.228384  
     527A      8.281417   528A      8.296020   529A      8.356280  
     530A      8.390519   531A      8.438167   532A      8.581554  
     533A      8.701343   534A      8.933007   535A      9.015118  
     536A     10.051994   537A     10.151719   538A     10.257288  
     539A     10.392501   540A     10.707151   541A     10.722673  
     542A     11.044393   543A     12.119722   544A     12.541753  
     545A     13.308060   546A     14.126457   547A     17.053822  
     548A     17.828314   549A     18.681710   550A     53.090447  
     551A     54.660622   552A     67.269784  

    Final Occupation by Irrep:
              A 
    DOCC [    13 ]
    NA   [    13 ]
    NB   [    13 ]

  @DF-RHF Final Energy:  -154.14451821334393

   => Energetics <=

    Nuclear Repulsion Energy =             82.2127673930930172
    One-Electron Energy =                -372.3266936088312491
    Two-Electron Energy =                 135.9694080023942888
    Total Energy =                       -154.1445182133439289

Computation Completed


Properties will be evaluated at   0.000000,   0.000000,   0.000000 [a0]

Properties computed using the SCF density matrix


 Multipole Moments:

 ------------------------------------------------------------------------------------
     Multipole            Electronic (a.u.)      Nuclear  (a.u.)        Total (a.u.)
 ------------------------------------------------------------------------------------

 L = 1.  Multiply by 2.5417464519 to convert [e a0] to [Debye]
 Dipole X            :         82.8758339          -82.7799858            0.0958481
 Dipole Y            :         -9.9961377            9.4621308           -0.5340069
 Dipole Z            :         -2.4620197            2.0033535           -0.4586662
 Magnitude           :                                                    0.7104399

 ------------------------------------------------------------------------------------

*** tstop() called on Moses-MBP.lan at Thu Feb 27 17:13:15 2025
Module time:
	user time   =      72.00 seconds =       1.20 minutes
	system time =       6.19 seconds =       0.10 minutes
	total time  =         10 seconds =       0.17 minutes
Total time:
	user time   =     164.87 seconds =       2.75 minutes
	system time =      12.99 seconds =       0.22 minutes
	total time  =         22 seconds =       0.37 minutes

*** tstart() called on Moses-MBP.lan
*** at Thu Feb 27 17:13:15 2025


  //>>>>>>>>>>>>>>>>>>>>>>>>>>>>>>>>>>>//
  //               DFMP2               //
  //<<<<<<<<<<<<<<<<<<<<<<<<<<<<<<<<<<<//

   => Loading Basis Set <=

    Name: (AUG-CC-PVTZ AUX)
    Role: RIFIT
    Keyword: DF_BASIS_MP2
    atoms 1-2, 10-11 entry C          line   148 file /Users/moseschung/miniconda3/envs/psi4/share/psi4/basis/aug-cc-pvtz-ri.gbs 
    atoms 3, 12      entry O          line   264 file /Users/moseschung/miniconda3/envs/psi4/share/psi4/basis/aug-cc-pvtz-ri.gbs 
    atoms 4-9, 13-18 entry H          line    30 file /Users/moseschung/miniconda3/envs/psi4/share/psi4/basis/aug-cc-pvtz-ri.gbs 

	 --------------------------------------------------------
	                          DF-MP2                         
	      2nd-Order Density-Fitted Moller-Plesset Theory     
	              RMP2 Wavefunction,  10 Threads             
	                                                         
	        Rob Parrish, Justin Turney, Andy Simmonett,      
	           Ed Hohenstein, and C. David Sherrill          
	 --------------------------------------------------------

   => Auxiliary Basis Set <=

  Basis Set: (AUG-CC-PVTZ AUX)
    Blend: AUG-CC-PVTZ-RI
    Number of shells: 336
    Number of basis functions: 1188
    Number of Cartesian functions: 1476
    Spherical Harmonics?: true
    Max angular momentum: 4

	 --------------------------------------------------------
	                 NBF =   552, NAUX =  1188
	 --------------------------------------------------------
	   CLASS    FOCC     OCC    AOCC    AVIR     VIR    FVIR
	   PAIRS       0      13      13     539     539       0
	 --------------------------------------------------------

	-----------------------------------------------------------
	 ==================> DF-MP2 Energies <==================== 
	-----------------------------------------------------------
	 Reference Energy          =    -154.1445182133439289 [Eh]
	 Singles Energy            =      -0.0000000000000000 [Eh]
	 Same-Spin Energy          =      -0.1483657789803270 [Eh]
	 Opposite-Spin Energy      =      -0.5190577873000890 [Eh]
	 Correlation Energy        =      -0.6674235662804160 [Eh]
	 Total Energy              =    -154.8119417796243340 [Eh]
	-----------------------------------------------------------
	 ================> DF-SCS-MP2 Energies <================== 
	-----------------------------------------------------------
	 SCS Same-Spin Scale       =       0.3333333333333333 [-]
	 SCS Opposite-Spin Scale   =       1.2000000000000000 [-]
	 SCS Same-Spin Energy      =      -0.0494552596601090 [Eh]
	 SCS Opposite-Spin Energy  =      -0.6228693447601068 [Eh]
	 SCS Correlation Energy    =      -0.6723246044202158 [Eh]
	 SCS Total Energy          =    -154.8168428177641545 [Eh]
	-----------------------------------------------------------


*** tstop() called on Moses-MBP.lan at Thu Feb 27 17:13:18 2025
Module time:
	user time   =      20.56 seconds =       0.34 minutes
	system time =       1.76 seconds =       0.03 minutes
	total time  =          3 seconds =       0.05 minutes
Total time:
	user time   =     185.44 seconds =       3.09 minutes
	system time =      14.75 seconds =       0.25 minutes
	total time  =         25 seconds =       0.42 minutes

    Psi4 stopped on: Thursday, 27 February 2025 05:13PM
    Psi4 wall time for execution: 0:00:12.70


    -----------------------------------------------------------------------
          Psi4: An Open-Source Ab Initio Electronic Structure Package
                               Psi4 1.9.1 release

                         Git: Rev {} zzzzzzz 


    D. G. A. Smith, L. A. Burns, A. C. Simmonett, R. M. Parrish,
    M. C. Schieber, R. Galvelis, P. Kraus, H. Kruse, R. Di Remigio,
    A. Alenaizan, A. M. James, S. Lehtola, J. P. Misiewicz, M. Scheurer,
    R. A. Shaw, J. B. Schriber, Y. Xie, Z. L. Glick, D. A. Sirianni,
    J. S. O'Brien, J. M. Waldrop, A. Kumar, E. G. Hohenstein,
    B. P. Pritchard, B. R. Brooks, H. F. Schaefer III, A. Yu. Sokolov,
    K. Patkowski, A. E. DePrince III, U. Bozkaya, R. A. King,
    F. A. Evangelista, J. M. Turney, T. D. Crawford, C. D. Sherrill,
    J. Chem. Phys. 152(18) 184108 (2020). https://doi.org/10.1063/5.0006002

                            Additional Code Authors
    E. T. Seidl, C. L. Janssen, E. F. Valeev, M. L. Leininger,
    J. F. Gonthier, R. M. Richard, H. R. McAlexander, M. Saitow, X. Wang,
    P. Verma, M. H. Lechner, A. Jiang, S. Behnle, A. G. Heide,
    M. F. Herbst, and D. L. Poole

             Previous Authors, Complete List of Code Contributors,
                       and Citations for Specific Modules
    https://github.com/psi4/psi4/blob/master/codemeta.json
    https://github.com/psi4/psi4/graphs/contributors
    http://psicode.org/psi4manual/master/introduction.html#citing-psifour

    -----------------------------------------------------------------------


    Psi4 started on: Thursday, 27 February 2025 05:12PM

    Process ID: 30306
    Host:       Moses-MBP.lan
    PSIDATADIR: /Users/moseschung/miniconda3/envs/psi4/share/psi4
    Memory:     9.3 GiB
    Threads:    10
    
  ==> Input QCSchema <==

--------------------------------------------------------------------------
{'driver': 'energy',
 'extras': {'psiapi': True, 'wfn_qcvars_only': True},
 'id': None,
 'keywords': {'SCF_TYPE': 'DF', 'function_kwargs': {}},
 'model': {'basis': 'aug-cc-pvtz', 'method': 'mp2'},
 'molecule': {'atom_labels': ['', '', '', '', '', '', '', '', '', '', '', '', '', '', '', '', '', ''],
              'atomic_numbers': [6, 6, 8, 1, 1, 1, 1, 1, 1, 6, 6, 8, 1, 1, 1, 1, 1, 1],
              'extras': {},
              'fix_com': True,
              'fix_orientation': True,
              'fix_symmetry': 'c1',
              'fragment_charges': [0.0, 0.0],
              'fragment_multiplicities': [1, 1],
              'fragments': [[0, 1, 2, 3, 4, 5, 6, 7, 8], [9, 10, 11, 12, 13, 14, 15, 16, 17]],
              'geometry': [-4.318608122043903, -1.4382478773724474, -0.8078824850728524, -3.240351181845047,
                           1.193471652341895, -0.5852500707804148, -2.027256613416398, 1.6018528064100843,
                           1.7373537285099125, -0.7523226472582669, 0.29946867855355297, 1.932817550296643,
                           -5.279269295181646, -1.7065266262253191, -2.615256235709354, -5.668983734582562,
                           -1.794342199275344, 0.7107751286639511, -2.8165120680706126, -2.8515551493411024,
                           -0.6621109014811611, -4.7443842050969325, 2.6053597399903308, -0.7234438526090203,
                           -1.9467051475926325, 1.5635612859299326, -2.179462714465273, 4.070052444762436,
                           1.69245572549516, -0.6632863111311958, 3.166564935550421, -0.9936028789567224,
                           -0.934539488905538, 2.091229511941522, -1.9443165337700539, 1.3300553875116103,
                           3.349429953258724, -1.8912794803329547, 2.639072454068499, 4.814714142308096,
                           2.4026053548115844, -2.4512979278862566, 5.582453175297848, 1.8250067851131486,
                           0.7397805349636033, 2.5209135486219973, 2.916049612276853, -0.05897835237553882,
                           4.698399609560042, -2.2357463173859093, -1.5759106461597994, 1.6645425808960224,
                           -1.1173534840084536, -2.3494927123294667],
              'mass_numbers': [12, 12, 16, 1, 1, 1, 1, 1, 1, 12, 12, 16, 1, 1, 1, 1, 1, 1],
              'masses': [12.0, 12.0, 15.99491461957, 1.00782503223, 1.00782503223, 1.00782503223, 1.00782503223,
                         1.00782503223, 1.00782503223, 12.0, 12.0, 15.99491461957, 1.00782503223, 1.00782503223,
                         1.00782503223, 1.00782503223, 1.00782503223, 1.00782503223],
              'molecular_charge': 0.0,
              'molecular_multiplicity': 1,
              'name': 'dimer',
              'provenance': {'creator': 'QCElemental',
                             'routine': 'qcelemental.molparse.from_string',
                             'version': '0.29.0'},
              'real': [True, True, True, True, True, True, True, True, True, True, True, True, True, True, True, True,
                       True, True],
              'schema_name': 'qcschema_molecule',
              'schema_version': 2,
              'symbols': ['C', 'C', 'O', 'H', 'H', 'H', 'H', 'H', 'H', 'C', 'C', 'O', 'H', 'H', 'H', 'H', 'H', 'H'],
              'validated': True},
 'protocols': {'stdout': True},
 'provenance': {'creator': 'QCElemental', 'routine': 'qcelemental.models.results', 'version': '0.29.0'},
 'schema_name': 'qcschema_input',
 'schema_version': 1}
--------------------------------------------------------------------------

Scratch directory: /tmp/
   => Libint2 <=

    Primary   basis highest AM E, G, H:  6, 6, 3
    Auxiliary basis highest AM E, G, H:  7, 7, 4
    Onebody   basis highest AM E, G, H:  -, -, -
    Solid Harmonics ordering:            Gaussian

*** tstart() called on Moses-MBP.lan
*** at Thu Feb 27 17:13:18 2025

   => Loading Basis Set <=

    Name: AUG-CC-PVTZ
    Role: ORBITAL
    Keyword: BASIS
    atoms 1-2, 10-11 entry C          line   239 file /Users/moseschung/miniconda3/envs/psi4/share/psi4/basis/aug-cc-pvtz.gbs 
    atoms 3, 12      entry O          line   331 file /Users/moseschung/miniconda3/envs/psi4/share/psi4/basis/aug-cc-pvtz.gbs 
    atoms 4-9, 13-18 entry H          line    40 file /Users/moseschung/miniconda3/envs/psi4/share/psi4/basis/aug-cc-pvtz.gbs 


         ---------------------------------------------------------
                                   SCF
               by Justin Turney, Rob Parrish, Andy Simmonett
                          and Daniel G. A. Smith
                              RHF Reference
                       10 Threads,   9536 MiB Core
         ---------------------------------------------------------

  ==> Geometry <==

    Molecular point group: c1
    Full point group: C1

    Geometry (in Bohr), charge = 0, multiplicity = 1:

       Center              X                  Y                   Z               Mass       
    ------------   -----------------  -----------------  -----------------  -----------------
         C           -4.318608122044    -1.438247877372    -0.807882485073    12.000000000000
         C           -3.240351181845     1.193471652342    -0.585250070780    12.000000000000
         O           -2.027256613416     1.601852806410     1.737353728510    15.994914619570
         H           -0.752322647258     0.299468678554     1.932817550297     1.007825032230
         H           -5.279269295182    -1.706526626225    -2.615256235709     1.007825032230
         H           -5.668983734583    -1.794342199275     0.710775128664     1.007825032230
         H           -2.816512068071    -2.851555149341    -0.662110901481     1.007825032230
         H           -4.744384205097     2.605359739990    -0.723443852609     1.007825032230
         H           -1.946705147593     1.563561285930    -2.179462714465     1.007825032230
         C            4.070052444762     1.692455725495    -0.663286311131    12.000000000000
         C            3.166564935550    -0.993602878957    -0.934539488906    12.000000000000
         O            2.091229511942    -1.944316533770     1.330055387512    15.994914619570
         H            3.349429953259    -1.891279480333     2.639072454068     1.007825032230
         H            4.814714142308     2.402605354812    -2.451297927886     1.007825032230
         H            5.582453175298     1.825006785113     0.739780534964     1.007825032230
         H            2.520913548622     2.916049612277    -0.058978352376     1.007825032230
         H            4.698399609560    -2.235746317386    -1.575910646160     1.007825032230
         H            1.664542580896    -1.117353484008    -2.349492712329     1.007825032230

  Running in c1 symmetry.

  Rotational constants: A =      0.15707  B =      0.05276  C =      0.04859 [cm^-1]
  Rotational constants: A =   4708.89831  B =   1581.57835  C =   1456.74986 [MHz]
  Nuclear repulsion =  262.918863553719575

  Charge       = 0
  Multiplicity = 1
  Electrons    = 52
  Nalpha       = 26
  Nbeta        = 26

  ==> Algorithm <==

  SCF Algorithm Type is DF.
  DIIS enabled.
  MOM disabled.
  Fractional occupation disabled.
  Guess Type is SAD.
  Energy threshold   = 1.00e-08
  Density threshold  = 1.00e-08
  Integral threshold = 1.00e-12

  ==> Primary Basis <==

  Basis Set: AUG-CC-PVTZ
    Blend: AUG-CC-PVTZ
    Number of shells: 192
    Number of basis functions: 552
    Number of Cartesian functions: 630
    Spherical Harmonics?: true
    Max angular momentum: 3

   => Loading Basis Set <=

    Name: (AUG-CC-PVTZ AUX)
    Role: JKFIT
    Keyword: DF_BASIS_SCF
    atoms 1-2, 10-11 entry C          line   162 file /Users/moseschung/miniconda3/envs/psi4/share/psi4/basis/aug-cc-pvtz-jkfit.gbs 
    atoms 3, 12      entry O          line   286 file /Users/moseschung/miniconda3/envs/psi4/share/psi4/basis/aug-cc-pvtz-jkfit.gbs 
    atoms 4-9, 13-18 entry H          line    70 file /Users/moseschung/miniconda3/envs/psi4/share/psi4/basis/aug-cc-pvtz-jkfit.gbs 

  ==> Integral Setup <==

  DFHelper Memory: AOs need 2.656 GiB; user supplied 6.985 GiB. 
  Using in-core AOs.

  ==> MemDFJK: Density-Fitted J/K Matrices <==

    J tasked:                   Yes
    K tasked:                   Yes
    wK tasked:                   No
    OpenMP threads:              10
    Memory [MiB]:              7152
    Algorithm:                 Core
    Schwarz Cutoff:           1E-12
    Mask sparsity (%):       4.0590
    Fitting Condition:        1E-10

   => Auxiliary Basis Set <=

  Basis Set: (AUG-CC-PVTZ AUX)
    Blend: AUG-CC-PVTZ-JKFIT
    Number of shells: 348
    Number of basis functions: 1176
    Number of Cartesian functions: 1446
    Spherical Harmonics?: true
    Max angular momentum: 4

  Minimum eigenvalue in the overlap matrix is 7.2924797795E-06.
  Reciprocal condition number of the overlap matrix is 3.7328088866E-07.
    Using symmetric orthogonalization.

  ==> Pre-Iterations <==

  SCF Guess: Superposition of Atomic Densities via on-the-fly atomic UHF (no occupation information).

   -------------------------
    Irrep   Nso     Nmo    
   -------------------------
     A        552     552 
   -------------------------
    Total     552     552
   -------------------------

  ==> Iterations <==

                           Total Energy        Delta E     RMS |[F,P]|

   @DF-RHF iter SAD:  -307.15094404254751   -3.07151e+02   0.00000e+00 
   @DF-RHF iter   1:  -308.02121394005860   -8.70270e-01   1.28722e-03 ADIIS/DIIS
   @DF-RHF iter   2:  -308.23972059407987   -2.18507e-01   6.48008e-04 ADIIS/DIIS
   @DF-RHF iter   3:  -308.28890251838203   -4.91819e-02   1.16155e-04 ADIIS/DIIS
   @DF-RHF iter   4:  -308.29198667061155   -3.08415e-03   4.14677e-05 DIIS
   @DF-RHF iter   5:  -308.29229555863532   -3.08888e-04   8.93301e-06 DIIS
   @DF-RHF iter   6:  -308.29231635226415   -2.07936e-05   2.10035e-06 DIIS
   @DF-RHF iter   7:  -308.29231788393986   -1.53168e-06   5.97664e-07 DIIS
   @DF-RHF iter   8:  -308.29231799492322   -1.10983e-07   1.86394e-07 DIIS
   @DF-RHF iter   9:  -308.29231800742002   -1.24968e-08   4.61366e-08 DIIS
   @DF-RHF iter  10:  -308.29231800825636   -8.36337e-10   9.36516e-09 DIIS
  Energy and wave function converged.


  ==> Post-Iterations <==

    Orbital Energies [Eh]
    ---------------------

    Doubly Occupied:                                                      

       1A    -20.577418     2A    -20.530345     3A    -11.286676  
       4A    -11.260253     5A    -11.222610     6A    -11.204407  
       7A     -1.383631     8A     -1.341249     9A     -1.025114  
      10A     -0.999299    11A     -0.860607    12A     -0.833240  
      13A     -0.713302    14A     -0.669111    15A     -0.639047  
      16A     -0.621963    17A     -0.610050    18A     -0.599992  
      19A     -0.556440    20A     -0.535994    21A     -0.528102  
      22A     -0.511766    23A     -0.495367    24A     -0.469808  
      25A     -0.455086    26A     -0.422383  

    Virtual:                                                              

      27A      0.025820    28A      0.034440    29A      0.037548  
      30A      0.039835    31A      0.052598    32A      0.053506  
      33A      0.054711    34A      0.065653    35A      0.068110  
      36A      0.077471    37A      0.079670    38A      0.087457  
      39A      0.112335    40A      0.117212    41A      0.119254  
      42A      0.126720    43A      0.128924    44A      0.135071  
      45A      0.137394    46A      0.141841    47A      0.149757  
      48A      0.152023    49A      0.157926    50A      0.160952  
      51A      0.164590    52A      0.181347    53A      0.186806  
      54A      0.192722    55A      0.200132    56A      0.208798  
      57A      0.219190    58A      0.222103    59A      0.235237  
      60A      0.241456    61A      0.257837    62A      0.260780  
      63A      0.264414    64A      0.275607    65A      0.276021  
      66A      0.290830    67A      0.296393    68A      0.304318  
      69A      0.308540    70A      0.318564    71A      0.318950  
      72A      0.325791    73A      0.326795    74A      0.336482  
      75A      0.338112    76A      0.345947    77A      0.347609  
      78A      0.352944    79A      0.361102    80A      0.368378  
      81A      0.373036    82A      0.378737    83A      0.383728  
      84A      0.392031    85A      0.397874    86A      0.400297  
      87A      0.405800    88A      0.409644    89A      0.418155  
      90A      0.423948    91A      0.428120    92A      0.430705  
      93A      0.438617    94A      0.441462    95A      0.447797  
      96A      0.448522    97A      0.455772    98A      0.461894  
      99A      0.465655   100A      0.473868   101A      0.474873  
     102A      0.480215   103A      0.490593   104A      0.495613  
     105A      0.500141   106A      0.503934   107A      0.505239  
     108A      0.514547   109A      0.522699   110A      0.524626  
     111A      0.530304   112A      0.538665   113A      0.542417  
     114A      0.544775   115A      0.551890   116A      0.564175  
     117A      0.569108   118A      0.576085   119A      0.584707  
     120A      0.592072   121A      0.604963   122A      0.612258  
     123A      0.618783   124A      0.625238   125A      0.630011  
     126A      0.640444   127A      0.643353   128A      0.651556  
     129A      0.657869   130A      0.661172   131A      0.679229  
     132A      0.682779   133A      0.704016   134A      0.716774  
     135A      0.722157   136A      0.732057   137A      0.752339  
     138A      0.773130   139A      0.777033   140A      0.788684  
     141A      0.798107   142A      0.802246   143A      0.817573  
     144A      0.822026   145A      0.836406   146A      0.843454  
     147A      0.852273   148A      0.855510   149A      0.862383  
     150A      0.865335   151A      0.870016   152A      0.881894  
     153A      0.884631   154A      0.897440   155A      0.904615  
     156A      0.912784   157A      0.918648   158A      0.921601  
     159A      0.927993   160A      0.940802   161A      0.949119  
     162A      0.955037   163A      0.961731   164A      0.964416  
     165A      0.972986   166A      0.980578   167A      0.993033  
     168A      0.999330   169A      1.000306   170A      1.006474  
     171A      1.008783   172A      1.015951   173A      1.032366  
     174A      1.033830   175A      1.038008   176A      1.047195  
     177A      1.049622   178A      1.050676   179A      1.068248  
     180A      1.079540   181A      1.091944   182A      1.099625  
     183A      1.104989   184A      1.109938   185A      1.119863  
     186A      1.127321   187A      1.134747   188A      1.148804  
     189A      1.159341   190A      1.162445   191A      1.164730  
     192A      1.168541   193A      1.180489   194A      1.185389  
     195A      1.189059   196A      1.190111   197A      1.203141  
     198A      1.204983   199A      1.226347   200A      1.228351  
     201A      1.232292   202A      1.238094   203A      1.243606  
     204A      1.264900   205A      1.268593   206A      1.278898  
     207A      1.289889   208A      1.304242   209A      1.309880  
     210A      1.316922   211A      1.326432   212A      1.332806  
     213A      1.343206   214A      1.344169   215A      1.364715  
     216A      1.375836   217A      1.382916   218A      1.389011  
     219A      1.396917   220A      1.409218   221A      1.414125  
     222A      1.419571   223A      1.429750   224A      1.434162  
     225A      1.440309   226A      1.464775   227A      1.474512  
     228A      1.485767   229A      1.487766   230A      1.502129  
     231A      1.505883   232A      1.522783   233A      1.538672  
     234A      1.549414   235A      1.562613   236A      1.566764  
     237A      1.578013   238A      1.583799   239A      1.593816  
     240A      1.600221   241A      1.618432   242A      1.633186  
     243A      1.647512   244A      1.656096   245A      1.671818  
     246A      1.674438   247A      1.687516   248A      1.695513  
     249A      1.702554   250A      1.709868   251A      1.713141  
     252A      1.721416   253A      1.734323   254A      1.740932  
     255A      1.751066   256A      1.756756   257A      1.762356  
     258A      1.777320   259A      1.779577   260A      1.787193  
     261A      1.795346   262A      1.809313   263A      1.831419  
     264A      1.841427   265A      1.841665   266A      1.852248  
     267A      1.859974   268A      1.870848   269A      1.890030  
     270A      1.903599   271A      1.909958   272A      1.916523  
     273A      1.925379   274A      1.936069   275A      1.944258  
     276A      1.952440   277A      1.961619   278A      1.966523  
     279A      1.974954   280A      2.000265   281A      2.009046  
     282A      2.019857   283A      2.033669   284A      2.048725  
     285A      2.065722   286A      2.078554   287A      2.087081  
     288A      2.094531   289A      2.105005   290A      2.124413  
     291A      2.138917   292A      2.145046   293A      2.155262  
     294A      2.173671   295A      2.181341   296A      2.194003  
     297A      2.213889   298A      2.225625   299A      2.244203  
     300A      2.256606   301A      2.267394   302A      2.278252  
     303A      2.292571   304A      2.305672   305A      2.307460  
     306A      2.316592   307A      2.326107   308A      2.344484  
     309A      2.379491   310A      2.419992   311A      2.434197  
     312A      2.440006   313A      2.452279   314A      2.458522  
     315A      2.476032   316A      2.485336   317A      2.503218  
     318A      2.535369   319A      2.578519   320A      2.626433  
     321A      2.664442   322A      2.701831   323A      2.707555  
     324A      2.726683   325A      2.754424   326A      2.783602  
     327A      2.819149   328A      2.838737   329A      2.854410  
     330A      2.868916   331A      2.894485   332A      2.905617  
     333A      2.927359   334A      2.962671   335A      2.969585  
     336A      3.015100   337A      3.026755   338A      3.054919  
     339A      3.072338   340A      3.114768   341A      3.124137  
     342A      3.129948   343A      3.155970   344A      3.187309  
     345A      3.221221   346A      3.245545   347A      3.253545  
     348A      3.277202   349A      3.312848   350A      3.319572  
     351A      3.404449   352A      3.418607   353A      3.435901  
     354A      3.479537   355A      3.488950   356A      3.505953  
     357A      3.531862   358A      3.540737   359A      3.566643  
     360A      3.585580   361A      3.625520   362A      3.636952  
     363A      3.645466   364A      3.660803   365A      3.682346  
     366A      3.687115   367A      3.712409   368A      3.727162  
     369A      3.735892   370A      3.745080   371A      3.751011  
     372A      3.758108   373A      3.775735   374A      3.797307  
     375A      3.807944   376A      3.814074   377A      3.828376  
     378A      3.841224   379A      3.853159   380A      3.860773  
     381A      3.900689   382A      3.918023   383A      3.930739  
     384A      3.950648   385A      3.968143   386A      3.980953  
     387A      3.986173   388A      3.992516   389A      4.002309  
     390A      4.005195   391A      4.017976   392A      4.027945  
     393A      4.043762   394A      4.088566   395A      4.093951  
     396A      4.097731   397A      4.114607   398A      4.123537  
     399A      4.129537   400A      4.151112   401A      4.165462  
     402A      4.170774   403A      4.184873   404A      4.196258  
     405A      4.219156   406A      4.229955   407A      4.237628  
     408A      4.248454   409A      4.257177   410A      4.280327  
     411A      4.295724   412A      4.302964   413A      4.321064  
     414A      4.340024   415A      4.370348   416A      4.394483  
     417A      4.399646   418A      4.431702   419A      4.465648  
     420A      4.481733   421A      4.492916   422A      4.515749  
     423A      4.530828   424A      4.558709   425A      4.571079  
     426A      4.594980   427A      4.596086   428A      4.611602  
     429A      4.622755   430A      4.637716   431A      4.645467  
     432A      4.686887   433A      4.700426   434A      4.715962  
     435A      4.738032   436A      4.754199   437A      4.776878  
     438A      4.796747   439A      4.805586   440A      4.821245  
     441A      4.852351   442A      4.853391   443A      4.868869  
     444A      4.884175   445A      4.891879   446A      4.908854  
     447A      4.914671   448A      4.948278   449A      4.955500  
     450A      4.970491   451A      4.982406   452A      5.001117  
     453A      5.021166   454A      5.048355   455A      5.054272  
     456A      5.068515   457A      5.082230   458A      5.086073  
     459A      5.093069   460A      5.118349   461A      5.131580  
     462A      5.152074   463A      5.164312   464A      5.200988  
     465A      5.206333   466A      5.213256   467A      5.242965  
     468A      5.251712   469A      5.269295   470A      5.308132  
     471A      5.314817   472A      5.340020   473A      5.370243  
     474A      5.384286   475A      5.391726   476A      5.403488  
     477A      5.455953   478A      5.470346   479A      5.480920  
     480A      5.508401   481A      5.517433   482A      5.566714  
     483A      5.579396   484A      5.590381   485A      5.591191  
     486A      5.619925   487A      5.652217   488A      5.669920  
     489A      5.683856   490A      5.685411   491A      5.724788  
     492A      5.744559   493A      5.756609   494A      5.770077  
     495A      5.802637   496A      5.815338   497A      5.868036  
     498A      5.887827   499A      6.014780   500A      6.029176  
     501A      6.076889   502A      6.125437   503A      6.148220  
     504A      6.163029   505A      6.211316   506A      6.221238  
     507A      6.258239   508A      6.283004   509A      6.285418  
     510A      6.306321   511A      6.336132   512A      6.382969  
     513A      6.429975   514A      6.433239   515A      6.725248  
     516A      6.765711   517A      6.781696   518A      6.800129  
     519A      6.832409   520A      6.842962   521A      6.896054  
     522A      6.913720   523A      7.013991   524A      7.053352  
     525A      7.085451   526A      7.138979   527A      7.201138  
     528A      7.237501   529A      7.363595   530A      7.419131  
     531A      7.453365   532A      7.484375   533A      7.525791  
     534A      7.557985   535A      7.629396   536A      7.648998  
     537A      7.709159   538A      7.739105   539A      7.883418  
     540A      7.916489   541A      7.975435   542A      8.096173  
     543A      8.271922   544A      8.341625   545A      8.666236  
     546A      8.729243   547A     16.451570   548A     17.136348  
     549A     17.832087   550A     17.867383   551A     18.622347  
     552A     18.894398  

    Final Occupation by Irrep:
              A 
    DOCC [    26 ]
    NA   [    26 ]
    NB   [    26 ]

  @DF-RHF Final Energy:  -308.29231800825636

   => Energetics <=

    Nuclear Repulsion Energy =            262.9188635537195751
    One-Electron Energy =                -941.7158317993986429
    Two-Electron Energy =                 370.5046502374227089
    Total Energy =                       -308.2923180082563590

Computation Completed


Properties will be evaluated at   0.000000,   0.000000,   0.000000 [a0]

Properties computed using the SCF density matrix


 Multipole Moments:

 ------------------------------------------------------------------------------------
     Multipole            Electronic (a.u.)      Nuclear  (a.u.)        Total (a.u.)
 ------------------------------------------------------------------------------------

 L = 1.  Multiply by 2.5417464519 to convert [e a0] to [Debye]
 Dipole X            :          0.9758460            0.0000076            0.9758536
 Dipole Y            :         -0.3310258           -0.0000019           -0.3310277
 Dipole Z            :         -0.5097638            0.0000151           -0.5097487
 Magnitude           :                                                    1.1496579

 ------------------------------------------------------------------------------------

*** tstop() called on Moses-MBP.lan at Thu Feb 27 17:13:29 2025
Module time:
	user time   =      85.98 seconds =       1.43 minutes
	system time =       7.53 seconds =       0.13 minutes
	total time  =         11 seconds =       0.18 minutes
Total time:
	user time   =     271.72 seconds =       4.53 minutes
	system time =      22.37 seconds =       0.37 minutes
	total time  =         36 seconds =       0.60 minutes

*** tstart() called on Moses-MBP.lan
*** at Thu Feb 27 17:13:29 2025


  //>>>>>>>>>>>>>>>>>>>>>>>>>>>>>>>>>>>//
  //               DFMP2               //
  //<<<<<<<<<<<<<<<<<<<<<<<<<<<<<<<<<<<//

   => Loading Basis Set <=

    Name: (AUG-CC-PVTZ AUX)
    Role: RIFIT
    Keyword: DF_BASIS_MP2
    atoms 1-2, 10-11 entry C          line   148 file /Users/moseschung/miniconda3/envs/psi4/share/psi4/basis/aug-cc-pvtz-ri.gbs 
    atoms 3, 12      entry O          line   264 file /Users/moseschung/miniconda3/envs/psi4/share/psi4/basis/aug-cc-pvtz-ri.gbs 
    atoms 4-9, 13-18 entry H          line    30 file /Users/moseschung/miniconda3/envs/psi4/share/psi4/basis/aug-cc-pvtz-ri.gbs 

	 --------------------------------------------------------
	                          DF-MP2                         
	      2nd-Order Density-Fitted Moller-Plesset Theory     
	              RMP2 Wavefunction,  10 Threads             
	                                                         
	        Rob Parrish, Justin Turney, Andy Simmonett,      
	           Ed Hohenstein, and C. David Sherrill          
	 --------------------------------------------------------

   => Auxiliary Basis Set <=

  Basis Set: (AUG-CC-PVTZ AUX)
    Blend: AUG-CC-PVTZ-RI
    Number of shells: 336
    Number of basis functions: 1188
    Number of Cartesian functions: 1476
    Spherical Harmonics?: true
    Max angular momentum: 4

	 --------------------------------------------------------
	                 NBF =   552, NAUX =  1188
	 --------------------------------------------------------
	   CLASS    FOCC     OCC    AOCC    AVIR     VIR    FVIR
	   PAIRS       0      26      26     526     526       0
	 --------------------------------------------------------

	-----------------------------------------------------------
	 ==================> DF-MP2 Energies <==================== 
	-----------------------------------------------------------
	 Reference Energy          =    -308.2923180082563590 [Eh]
	 Singles Energy            =      -0.0000000000000000 [Eh]
	 Same-Spin Energy          =      -0.3006744978323898 [Eh]
	 Opposite-Spin Energy      =      -1.0413097279636647 [Eh]
	 Correlation Energy        =      -1.3419842257960544 [Eh]
	 Total Energy              =    -309.6343022340524271 [Eh]
	-----------------------------------------------------------
	 ================> DF-SCS-MP2 Energies <================== 
	-----------------------------------------------------------
	 SCS Same-Spin Scale       =       0.3333333333333333 [-]
	 SCS Opposite-Spin Scale   =       1.2000000000000000 [-]
	 SCS Same-Spin Energy      =      -0.1002248326107966 [Eh]
	 SCS Opposite-Spin Energy  =      -1.2495716735563975 [Eh]
	 SCS Correlation Energy    =      -1.3497965061671942 [Eh]
	 SCS Total Energy          =    -309.6421145144235538 [Eh]
	-----------------------------------------------------------


*** tstop() called on Moses-MBP.lan at Thu Feb 27 17:13:34 2025
Module time:
	user time   =      32.56 seconds =       0.54 minutes
	system time =       2.76 seconds =       0.05 minutes
	total time  =          5 seconds =       0.08 minutes
Total time:
	user time   =     304.29 seconds =       5.07 minutes
	system time =      25.13 seconds =       0.42 minutes
	total time  =         41 seconds =       0.68 minutes

    Psi4 stopped on: Thursday, 27 February 2025 05:13PM
    Psi4 wall time for execution: 0:00:16.40


  //>>>>>>>>>>>>>>>>>>>>>>>>>>>>>>>>>>>//
  //          ManyBody Results         //
  //<<<<<<<<<<<<<<<<<<<<<<<<<<<<<<<<<<<//


   ==> N-Body: Counterpoise Corrected (CP) energies <==

        n-Body     Total Energy            Interaction Energy                          N-body Contribution to Interaction Energy
                   [Eh]                    [Eh]                  [kcal/mol]            [Eh]                  [kcal/mol]
             1  N/A                         0.000000000000        0.000000000000        0.000000000000        0.000000000000
  FULL/RTN   2  N/A                        -0.010007762706       -6.279965909392       -0.010007762706       -6.279965909392


    Psi4 stopped on: Thursday, 27 February 2025 05:13PM
    Psi4 wall time for execution: 0:00:43.11

*** Psi4 exiting successfully. Buy a developer a beer!
