
    -----------------------------------------------------------------------
          Psi4: An Open-Source Ab Initio Electronic Structure Package
                               Psi4 1.9.1 release

                         Git: Rev {} zzzzzzz 


    D. G. A. Smith, L. A. Burns, A. C. Simmonett, R. M. Parrish,
    M. C. Schieber, R. Galvelis, P. Kraus, H. Kruse, R. Di Remigio,
    A. Alenaizan, A. M. James, S. Lehtola, J. P. Misiewicz, M. Scheurer,
    R. A. Shaw, J. B. Schriber, Y. Xie, Z. L. Glick, D. A. Sirianni,
    J. S. O'Brien, J. M. Waldrop, A. Kumar, E. G. Hohenstein,
    B. P. Pritchard, B. R. Brooks, H. F. Schaefer III, A. Yu. Sokolov,
    K. Patkowski, A. E. DePrince III, U. Bozkaya, R. A. King,
    F. A. Evangelista, J. M. Turney, T. D. Crawford, C. D. Sherrill,
    J. Chem. Phys. 152(18) 184108 (2020). https://doi.org/10.1063/5.0006002

                            Additional Code Authors
    E. T. Seidl, C. L. Janssen, E. F. Valeev, M. L. Leininger,
    J. F. Gonthier, R. M. Richard, H. R. McAlexander, M. Saitow, X. Wang,
    P. Verma, M. H. Lechner, A. Jiang, S. Behnle, A. G. Heide,
    M. F. Herbst, and D. L. Poole

             Previous Authors, Complete List of Code Contributors,
                       and Citations for Specific Modules
    https://github.com/psi4/psi4/blob/master/codemeta.json
    https://github.com/psi4/psi4/graphs/contributors
    http://psicode.org/psi4manual/master/introduction.html#citing-psifour

    -----------------------------------------------------------------------


    Psi4 started on: Thursday, 27 February 2025 05:26PM

    Process ID: 30740
    Host:       Moses-MBP.lan
    PSIDATADIR: /Users/moseschung/miniconda3/envs/psi4/share/psi4
    Memory:     500.0 MiB
    Threads:    10
    
  ==> Input File <==

--------------------------------------------------------------------------
MEMORY 10 GB

molecule dimer {
0 1
C   -1.686448   1.341898  -0.042337
C   -2.262488  -0.026468   0.247001
O   -1.639995  -1.048471  -0.482759
H   -0.760677  -1.193099  -0.101764
H   -2.245446   2.125623   0.474367
H   -1.715547   1.545841  -1.114785
H   -0.642230   1.412227   0.280111
H   -3.321544  -0.043902  -0.027915
H   -2.221993  -0.228649   1.328899
--
0 1
C    2.768163   0.652642  -0.020344
C    1.678194  -0.288476  -0.455531
O    1.000671  -0.866301   0.650390
H    0.848629  -0.177617   1.305383
H    3.302083   1.058364  -0.881158
H    3.487696   0.143710   0.623894
H    2.350056   1.498938   0.534905
H    2.087244  -1.126565  -1.024317
H    0.961797   0.225730  -1.111399

units ang
no_reorient
no_com
symmetry c1
}

set {
basis        aug-cc-pVTZ
scf_type     df
}

energy("mp2", bsse_type="cp")
--------------------------------------------------------------------------

  Memory set to   9.313 GiB by Python driver.

Scratch directory: /tmp/

  //>>>>>>>>>>>>>>>>>>>>>>>>>>>>>>>>>>>>>//
  // ManyBody Setup: N-Body Levels [1, 2]//
  //<<<<<<<<<<<<<<<<<<<<<<<<<<<<<<<<<<<<<//

        Number of 1-body computations:     2
        Number of 2-body computations:     1

    -----------------------------------------------------------------------
          Psi4: An Open-Source Ab Initio Electronic Structure Package
                               Psi4 1.9.1 release

                         Git: Rev {} zzzzzzz 


    D. G. A. Smith, L. A. Burns, A. C. Simmonett, R. M. Parrish,
    M. C. Schieber, R. Galvelis, P. Kraus, H. Kruse, R. Di Remigio,
    A. Alenaizan, A. M. James, S. Lehtola, J. P. Misiewicz, M. Scheurer,
    R. A. Shaw, J. B. Schriber, Y. Xie, Z. L. Glick, D. A. Sirianni,
    J. S. O'Brien, J. M. Waldrop, A. Kumar, E. G. Hohenstein,
    B. P. Pritchard, B. R. Brooks, H. F. Schaefer III, A. Yu. Sokolov,
    K. Patkowski, A. E. DePrince III, U. Bozkaya, R. A. King,
    F. A. Evangelista, J. M. Turney, T. D. Crawford, C. D. Sherrill,
    J. Chem. Phys. 152(18) 184108 (2020). https://doi.org/10.1063/5.0006002

                            Additional Code Authors
    E. T. Seidl, C. L. Janssen, E. F. Valeev, M. L. Leininger,
    J. F. Gonthier, R. M. Richard, H. R. McAlexander, M. Saitow, X. Wang,
    P. Verma, M. H. Lechner, A. Jiang, S. Behnle, A. G. Heide,
    M. F. Herbst, and D. L. Poole

             Previous Authors, Complete List of Code Contributors,
                       and Citations for Specific Modules
    https://github.com/psi4/psi4/blob/master/codemeta.json
    https://github.com/psi4/psi4/graphs/contributors
    http://psicode.org/psi4manual/master/introduction.html#citing-psifour

    -----------------------------------------------------------------------


    Psi4 started on: Thursday, 27 February 2025 05:26PM

    Process ID: 30740
    Host:       Moses-MBP.lan
    PSIDATADIR: /Users/moseschung/miniconda3/envs/psi4/share/psi4
    Memory:     9.3 GiB
    Threads:    10
    
  ==> Input QCSchema <==

--------------------------------------------------------------------------
{'driver': 'energy',
 'extras': {'psiapi': True, 'wfn_qcvars_only': True},
 'id': None,
 'keywords': {'SCF_TYPE': 'DF', 'function_kwargs': {}},
 'model': {'basis': 'aug-cc-pvtz', 'method': 'mp2'},
 'molecule': {'atom_labels': ['', '', '', '', '', '', '', '', '', '', '', '', '', '', '', '', '', ''],
              'atomic_numbers': [6, 6, 8, 1, 1, 1, 1, 1, 1, 6, 6, 8, 1, 1, 1, 1, 1, 1],
              'extras': {},
              'fix_com': True,
              'fix_orientation': True,
              'fix_symmetry': 'c1',
              'fragment_charges': [0.0, 0.0],
              'fragment_multiplicities': [1, 1],
              'fragments': [[0, 1, 2, 3, 4, 5, 6, 7, 8], [9, 10, 11, 12, 13, 14, 15, 16, 17]],
              'geometry': [-3.186924844826103, 2.535819708299609, -0.08000533497350806, -4.275482682134831,
                           -0.050017271088617796, 0.466764242714209, -3.099141397120211, -1.9813230404848945,
                           -0.9122822945998956, -1.4374711999348844, -2.2546303505576093, -0.19230608943109037,
                           -4.243277969504778, 4.016845315974045, 0.8964237129550535, -3.2419139853508008,
                           2.9212161235038545, -2.106638338768504, -1.2136388095527808, 2.668722256976932,
                           0.5293330747281177, -6.276808473657696, -0.08296275635984957, -0.05275170479215527,
                           -4.198958222684416, -0.4320839888598069, 2.5112551583947824, 5.2310699406257175,
                           1.233314637971048, -0.03844458829631406, 3.1713270453865743, -0.5451406337675725,
                           -0.8608288316559299, 1.8909941316880106, -1.6370716322102419, 1.2290589747365168,
                           1.6036763921211512, -0.3356474852254431, 2.466816358828516, 6.240032513530162,
                           2.000018101044049, -1.6651472932561688, 6.590790248854765, 0.2715725414895445,
                           1.1789887913163861, 4.440962219488922, 2.832582299041506, 1.0108239531380194,
                           3.9443195170050993, -2.128899312526398, -1.935678595650586, 1.8175329182869628,
                           0.4265678782995955, -2.100239726107705],
              'mass_numbers': [12, 12, 16, 1, 1, 1, 1, 1, 1, 12, 12, 16, 1, 1, 1, 1, 1, 1],
              'masses': [12.0, 12.0, 15.99491461957, 1.00782503223, 1.00782503223, 1.00782503223, 1.00782503223,
                         1.00782503223, 1.00782503223, 12.0, 12.0, 15.99491461957, 1.00782503223, 1.00782503223,
                         1.00782503223, 1.00782503223, 1.00782503223, 1.00782503223],
              'molecular_charge': 0.0,
              'molecular_multiplicity': 1,
              'name': 'dimer',
              'provenance': {'creator': 'QCElemental',
                             'routine': 'qcelemental.molparse.from_string',
                             'version': '0.29.0'},
              'real': [False, False, False, False, False, False, False, False, False, True, True, True, True, True,
                       True, True, True, True],
              'schema_name': 'qcschema_molecule',
              'schema_version': 2,
              'symbols': ['C', 'C', 'O', 'H', 'H', 'H', 'H', 'H', 'H', 'C', 'C', 'O', 'H', 'H', 'H', 'H', 'H', 'H'],
              'validated': True},
 'protocols': {'stdout': True},
 'provenance': {'creator': 'QCElemental', 'routine': 'qcelemental.models.results', 'version': '0.29.0'},
 'schema_name': 'qcschema_input',
 'schema_version': 1}
--------------------------------------------------------------------------

Scratch directory: /tmp/
   => Libint2 <=

    Primary   basis highest AM E, G, H:  6, 6, 3
    Auxiliary basis highest AM E, G, H:  7, 7, 4
    Onebody   basis highest AM E, G, H:  -, -, -
    Solid Harmonics ordering:            Gaussian

*** tstart() called on Moses-MBP.lan
*** at Thu Feb 27 17:26:18 2025

   => Loading Basis Set <=

    Name: AUG-CC-PVTZ
    Role: ORBITAL
    Keyword: BASIS
    atoms 1-2, 10-11 entry C          line   239 file /Users/moseschung/miniconda3/envs/psi4/share/psi4/basis/aug-cc-pvtz.gbs 
    atoms 3, 12      entry O          line   331 file /Users/moseschung/miniconda3/envs/psi4/share/psi4/basis/aug-cc-pvtz.gbs 
    atoms 4-9, 13-18 entry H          line    40 file /Users/moseschung/miniconda3/envs/psi4/share/psi4/basis/aug-cc-pvtz.gbs 


         ---------------------------------------------------------
                                   SCF
               by Justin Turney, Rob Parrish, Andy Simmonett
                          and Daniel G. A. Smith
                              RHF Reference
                       10 Threads,   9536 MiB Core
         ---------------------------------------------------------

  ==> Geometry <==

    Molecular point group: c1
    Full point group: C1

    Geometry (in Bohr), charge = 0, multiplicity = 1:

       Center              X                  Y                   Z               Mass       
    ------------   -----------------  -----------------  -----------------  -----------------
      Gh(C)          -3.186924844826     2.535819708300    -0.080005334974    12.000000000000
      Gh(C)          -4.275482682135    -0.050017271089     0.466764242714    12.000000000000
      Gh(O)          -3.099141397120    -1.981323040485    -0.912282294600    15.994914619570
      Gh(H)          -1.437471199935    -2.254630350558    -0.192306089431     1.007825032230
      Gh(H)          -4.243277969505     4.016845315974     0.896423712955     1.007825032230
      Gh(H)          -3.241913985351     2.921216123504    -2.106638338769     1.007825032230
      Gh(H)          -1.213638809553     2.668722256977     0.529333074728     1.007825032230
      Gh(H)          -6.276808473658    -0.082962756360    -0.052751704792     1.007825032230
      Gh(H)          -4.198958222684    -0.432083988860     2.511255158395     1.007825032230
         C            5.231069940626     1.233314637971    -0.038444588296    12.000000000000
         C            3.171327045387    -0.545140633768    -0.860828831656    12.000000000000
         O            1.890994131688    -1.637071632210     1.229058974737    15.994914619570
         H            1.603676392121    -0.335647485225     2.466816358829     1.007825032230
         H            6.240032513530     2.000018101044    -1.665147293256     1.007825032230
         H            6.590790248855     0.271572541490     1.178988791316     1.007825032230
         H            4.440962219489     2.832582299042     1.010823953138     1.007825032230
         H            3.944319517005    -2.128899312526    -1.935678595651     1.007825032230
         H            1.817532918287     0.426567878300    -2.100239726108     1.007825032230

  Running in c1 symmetry.

  Rotational constants: A =      0.17731  B =      0.04645  C =      0.04082 [cm^-1]
  Rotational constants: A =   5315.58557  B =   1392.50719  C =   1223.86126 [MHz]
  Nuclear repulsion =   82.117365589506761

  Charge       = 0
  Multiplicity = 1
  Electrons    = 26
  Nalpha       = 13
  Nbeta        = 13

  ==> Algorithm <==

  SCF Algorithm Type is DF.
  DIIS enabled.
  MOM disabled.
  Fractional occupation disabled.
  Guess Type is SAD.
  Energy threshold   = 1.00e-08
  Density threshold  = 1.00e-08
  Integral threshold = 1.00e-12

  ==> Primary Basis <==

  Basis Set: AUG-CC-PVTZ
    Blend: AUG-CC-PVTZ
    Number of shells: 192
    Number of basis functions: 552
    Number of Cartesian functions: 630
    Spherical Harmonics?: true
    Max angular momentum: 3

   => Loading Basis Set <=

    Name: (AUG-CC-PVTZ AUX)
    Role: JKFIT
    Keyword: DF_BASIS_SCF
    atoms 1-2, 10-11 entry C          line   162 file /Users/moseschung/miniconda3/envs/psi4/share/psi4/basis/aug-cc-pvtz-jkfit.gbs 
    atoms 3, 12      entry O          line   286 file /Users/moseschung/miniconda3/envs/psi4/share/psi4/basis/aug-cc-pvtz-jkfit.gbs 
    atoms 4-9, 13-18 entry H          line    70 file /Users/moseschung/miniconda3/envs/psi4/share/psi4/basis/aug-cc-pvtz-jkfit.gbs 

  ==> Integral Setup <==

  DFHelper Memory: AOs need 2.625 GiB; user supplied 6.985 GiB. 
  Using in-core AOs.

  ==> MemDFJK: Density-Fitted J/K Matrices <==

    J tasked:                   Yes
    K tasked:                   Yes
    wK tasked:                   No
    OpenMP threads:              10
    Memory [MiB]:              7152
    Algorithm:                 Core
    Schwarz Cutoff:           1E-12
    Mask sparsity (%):       5.2005
    Fitting Condition:        1E-10

   => Auxiliary Basis Set <=

  Basis Set: (AUG-CC-PVTZ AUX)
    Blend: AUG-CC-PVTZ-JKFIT
    Number of shells: 348
    Number of basis functions: 1176
    Number of Cartesian functions: 1446
    Spherical Harmonics?: true
    Max angular momentum: 4

  Minimum eigenvalue in the overlap matrix is 8.0836474447E-06.
  Reciprocal condition number of the overlap matrix is 4.2294658927E-07.
    Using symmetric orthogonalization.

  ==> Pre-Iterations <==

  SCF Guess: Superposition of Atomic Densities via on-the-fly atomic UHF (no occupation information).

   -------------------------
    Irrep   Nso     Nmo    
   -------------------------
     A        552     552 
   -------------------------
    Total     552     552
   -------------------------

  ==> Iterations <==

                           Total Energy        Delta E     RMS |[F,P]|

   @DF-RHF iter SAD:  -153.45088024203520   -1.53451e+02   0.00000e+00 
   @DF-RHF iter   1:  -154.00365671487376   -5.52776e-01   9.34572e-04 ADIIS/DIIS
   @DF-RHF iter   2:  -154.11507274563184   -1.11416e-01   4.94500e-04 ADIIS/DIIS
   @DF-RHF iter   3:  -154.14275957967916   -2.76868e-02   8.43320e-05 DIIS
   @DF-RHF iter   4:  -154.14434178273132   -1.58220e-03   3.22480e-05 DIIS
   @DF-RHF iter   5:  -154.14453073808886   -1.88955e-04   6.26087e-06 DIIS
   @DF-RHF iter   6:  -154.14454105430619   -1.03162e-05   1.44069e-06 DIIS
   @DF-RHF iter   7:  -154.14454181248175   -7.58176e-07   4.09716e-07 DIIS
   @DF-RHF iter   8:  -154.14454187025942   -5.77777e-08   1.31541e-07 DIIS
   @DF-RHF iter   9:  -154.14454187672720   -6.46779e-09   3.39216e-08 DIIS
   @DF-RHF iter  10:  -154.14454187717519   -4.47983e-10   6.25077e-09 DIIS
  Energy and wave function converged.


  ==> Post-Iterations <==

    Orbital Energies [Eh]
    ---------------------

    Doubly Occupied:                                                      

       1A    -20.554062     2A    -11.273821     3A    -11.221124  
       4A     -1.357526     5A     -1.016447     6A     -0.850321  
       7A     -0.678628     8A     -0.624542     9A     -0.621295  
      10A     -0.540561    11A     -0.526839    12A     -0.485439  
      13A     -0.442041  

    Virtual:                                                              

      14A      0.021700    15A      0.033885    16A      0.034793  
      17A      0.039641    18A      0.050075    19A      0.052264  
      20A      0.053176    21A      0.061974    22A      0.073330  
      23A      0.076974    24A      0.080337    25A      0.082923  
      26A      0.097544    27A      0.102307    28A      0.113740  
      29A      0.117671    30A      0.121469    31A      0.129235  
      32A      0.134714    33A      0.137594    34A      0.138963  
      35A      0.147923    36A      0.148918    37A      0.155390  
      38A      0.163249    39A      0.169907    40A      0.179070  
      41A      0.191185    42A      0.199253    43A      0.203936  
      44A      0.212305    45A      0.218399    46A      0.223363  
      47A      0.229124    48A      0.239010    49A      0.254536  
      50A      0.259496    51A      0.267550    52A      0.275386  
      53A      0.278484    54A      0.283926    55A      0.293111  
      56A      0.296845    57A      0.308385    58A      0.314770  
      59A      0.315573    60A      0.320755    61A      0.324578  
      62A      0.331599    63A      0.339671    64A      0.343195  
      65A      0.348078    66A      0.351757    67A      0.361213  
      68A      0.363904    69A      0.370595    70A      0.375738  
      71A      0.380717    72A      0.390017    73A      0.391428  
      74A      0.400785    75A      0.406899    76A      0.413937  
      77A      0.414807    78A      0.421555    79A      0.430762  
      80A      0.431715    81A      0.438205    82A      0.442236  
      83A      0.446832    84A      0.451541    85A      0.452676  
      86A      0.464448    87A      0.470024    88A      0.477014  
      89A      0.486059    90A      0.487119    91A      0.495659  
      92A      0.501784    93A      0.508709    94A      0.509290  
      95A      0.519618    96A      0.523328    97A      0.531185  
      98A      0.537937    99A      0.542045   100A      0.544374  
     101A      0.557527   102A      0.562830   103A      0.565414  
     104A      0.575139   105A      0.580451   106A      0.589834  
     107A      0.597375   108A      0.605192   109A      0.611613  
     110A      0.619496   111A      0.626461   112A      0.632440  
     113A      0.645540   114A      0.652762   115A      0.656845  
     116A      0.665538   117A      0.670260   118A      0.690845  
     119A      0.694953   120A      0.698351   121A      0.704060  
     122A      0.708868   123A      0.727945   124A      0.734241  
     125A      0.746253   126A      0.771505   127A      0.775539  
     128A      0.788491   129A      0.790914   130A      0.804909  
     131A      0.819461   132A      0.829656   133A      0.834496  
     134A      0.845480   135A      0.860318   136A      0.867199  
     137A      0.870343   138A      0.879119   139A      0.894377  
     140A      0.905727   141A      0.914410   142A      0.922218  
     143A      0.927036   144A      0.937147   145A      0.952482  
     146A      0.954269   147A      0.971226   148A      0.971786  
     149A      0.978219   150A      0.983003   151A      0.985543  
     152A      0.997200   153A      1.003240   154A      1.015050  
     155A      1.016049   156A      1.024115   157A      1.036370  
     158A      1.040989   159A      1.053467   160A      1.059826  
     161A      1.070283   162A      1.073872   163A      1.080629  
     164A      1.083878   165A      1.087433   166A      1.093979  
     167A      1.100306   168A      1.109347   169A      1.114189  
     170A      1.122924   171A      1.128436   172A      1.133234  
     173A      1.147445   174A      1.148742   175A      1.152323  
     176A      1.163273   177A      1.170204   178A      1.173812  
     179A      1.180735   180A      1.190506   181A      1.199054  
     182A      1.203963   183A      1.209873   184A      1.216154  
     185A      1.230624   186A      1.242145   187A      1.247324  
     188A      1.250679   189A      1.261279   190A      1.270794  
     191A      1.282626   192A      1.285419   193A      1.302186  
     194A      1.309250   195A      1.311936   196A      1.322784  
     197A      1.326804   198A      1.330581   199A      1.335222  
     200A      1.343153   201A      1.361629   202A      1.368735  
     203A      1.381896   204A      1.388607   205A      1.399134  
     206A      1.405006   207A      1.417750   208A      1.424559  
     209A      1.427707   210A      1.437647   211A      1.447566  
     212A      1.459919   213A      1.464363   214A      1.472307  
     215A      1.490863   216A      1.508970   217A      1.514995  
     218A      1.517845   219A      1.529377   220A      1.539964  
     221A      1.549923   222A      1.555035   223A      1.563070  
     224A      1.581200   225A      1.586580   226A      1.602034  
     227A      1.617628   228A      1.630422   229A      1.637319  
     230A      1.648996   231A      1.659580   232A      1.664673  
     233A      1.678741   234A      1.681250   235A      1.690316  
     236A      1.703799   237A      1.709347   238A      1.711772  
     239A      1.716547   240A      1.740465   241A      1.742321  
     242A      1.759974   243A      1.763337   244A      1.782775  
     245A      1.797281   246A      1.805383   247A      1.816062  
     248A      1.828681   249A      1.844347   250A      1.852228  
     251A      1.861811   252A      1.867242   253A      1.877550  
     254A      1.885514   255A      1.895670   256A      1.906405  
     257A      1.921404   258A      1.938114   259A      1.953372  
     260A      1.956606   261A      1.970947   262A      1.978358  
     263A      1.990409   264A      2.009642   265A      2.020835  
     266A      2.026355   267A      2.032448   268A      2.050305  
     269A      2.066129   270A      2.071100   271A      2.089083  
     272A      2.100886   273A      2.112368   274A      2.117418  
     275A      2.133272   276A      2.145625   277A      2.148397  
     278A      2.171414   279A      2.185240   280A      2.189187  
     281A      2.201532   282A      2.215309   283A      2.230446  
     284A      2.241622   285A      2.251149   286A      2.258108  
     287A      2.280756   288A      2.293156   289A      2.300212  
     290A      2.307565   291A      2.337926   292A      2.354963  
     293A      2.382188   294A      2.392901   295A      2.406140  
     296A      2.421919   297A      2.429014   298A      2.441224  
     299A      2.453010   300A      2.499360   301A      2.503497  
     302A      2.507338   303A      2.524951   304A      2.575855  
     305A      2.610625   306A      2.639062   307A      2.671825  
     308A      2.684772   309A      2.700636   310A      2.714934  
     311A      2.747631   312A      2.758325   313A      2.766510  
     314A      2.787925   315A      2.799166   316A      2.837268  
     317A      2.858616   318A      2.870114   319A      2.880504  
     320A      2.889655   321A      2.905544   322A      2.915092  
     323A      2.941418   324A      2.997962   325A      3.014387  
     326A      3.031299   327A      3.046785   328A      3.071567  
     329A      3.115303   330A      3.123268   331A      3.162056  
     332A      3.164208   333A      3.182287   334A      3.208444  
     335A      3.244534   336A      3.268482   337A      3.301933  
     338A      3.373245   339A      3.411527   340A      3.427275  
     341A      3.474758   342A      3.488392   343A      3.519603  
     344A      3.529530   345A      3.548807   346A      3.590953  
     347A      3.613052   348A      3.644980   349A      3.651417  
     350A      3.672506   351A      3.687039   352A      3.704992  
     353A      3.727122   354A      3.736370   355A      3.783788  
     356A      3.785219   357A      3.802264   358A      3.835813  
     359A      3.840476   360A      3.866583   361A      3.888074  
     362A      3.921341   363A      3.944518   364A      3.968535  
     365A      3.972750   366A      4.001863   367A      4.013721  
     368A      4.022759   369A      4.067580   370A      4.075391  
     371A      4.093875   372A      4.120816   373A      4.147687  
     374A      4.156156   375A      4.157085   376A      4.167065  
     377A      4.178621   378A      4.192154   379A      4.206831  
     380A      4.235680   381A      4.240284   382A      4.245996  
     383A      4.260579   384A      4.292693   385A      4.307059  
     386A      4.320451   387A      4.338584   388A      4.357324  
     389A      4.371172   390A      4.397829   391A      4.407026  
     392A      4.418982   393A      4.458660   394A      4.486544  
     395A      4.497812   396A      4.503400   397A      4.513720  
     398A      4.529152   399A      4.564066   400A      4.577243  
     401A      4.599476   402A      4.604478   403A      4.628957  
     404A      4.649677   405A      4.658191   406A      4.663535  
     407A      4.684101   408A      4.691465   409A      4.707600  
     410A      4.712023   411A      4.724501   412A      4.753875  
     413A      4.788862   414A      4.797108   415A      4.821211  
     416A      4.824599   417A      4.830767   418A      4.859205  
     419A      4.872773   420A      4.889950   421A      4.899470  
     422A      4.908429   423A      4.924011   424A      4.934358  
     425A      4.963000   426A      4.979965   427A      4.993673  
     428A      5.006703   429A      5.014946   430A      5.037747  
     431A      5.056783   432A      5.071818   433A      5.076947  
     434A      5.101643   435A      5.118336   436A      5.140195  
     437A      5.170495   438A      5.175528   439A      5.186315  
     440A      5.226534   441A      5.236595   442A      5.248709  
     443A      5.266756   444A      5.295323   445A      5.301978  
     446A      5.323405   447A      5.349566   448A      5.360685  
     449A      5.386136   450A      5.402960   451A      5.423575  
     452A      5.430334   453A      5.459570   454A      5.466339  
     455A      5.499644   456A      5.524564   457A      5.533618  
     458A      5.535716   459A      5.547300   460A      5.571460  
     461A      5.583255   462A      5.607870   463A      5.633966  
     464A      5.646911   465A      5.655292   466A      5.672977  
     467A      5.685471   468A      5.695639   469A      5.748434  
     470A      5.756148   471A      5.780288   472A      5.794395  
     473A      5.814583   474A      5.823235   475A      5.875530  
     476A      5.888671   477A      5.897127   478A      5.987995  
     479A      6.005928   480A      6.017708   481A      6.075408  
     482A      6.077807   483A      6.109868   484A      6.139305  
     485A      6.176289   486A      6.195284   487A      6.243056  
     488A      6.243215   489A      6.267513   490A      6.316299  
     491A      6.379934   492A      6.388994   493A      6.425461  
     494A      6.476344   495A      6.560401   496A      6.737404  
     497A      6.765930   498A      6.788887   499A      6.804835  
     500A      6.884598   501A      6.901827   502A      6.989020  
     503A      7.029105   504A      7.038806   505A      7.094750  
     506A      7.129824   507A      7.135142   508A      7.212611  
     509A      7.336276   510A      7.367061   511A      7.451027  
     512A      7.461101   513A      7.515127   514A      7.558666  
     515A      7.710727   516A      7.789041   517A      7.804667  
     518A      7.851477   519A      7.885382   520A      7.897294  
     521A      7.936093   522A      7.973209   523A      8.010983  
     524A      8.051681   525A      8.169806   526A      8.231229  
     527A      8.302283   528A      8.325820   529A      8.358611  
     530A      8.396756   531A      8.449247   532A      8.631729  
     533A      8.710806   534A      8.947176   535A      9.060025  
     536A     10.008075   537A     10.132613   538A     10.299095  
     539A     10.476389   540A     10.685582   541A     10.724420  
     542A     11.109407   543A     12.104146   544A     12.434069  
     545A     13.339946   546A     14.371503   547A     16.944663  
     548A     17.866135   549A     18.641452   550A     52.798041  
     551A     54.531603   552A     67.589199  

    Final Occupation by Irrep:
              A 
    DOCC [    13 ]
    NA   [    13 ]
    NB   [    13 ]

  @DF-RHF Final Energy:  -154.14454187717519

   => Energetics <=

    Nuclear Repulsion Energy =             82.1173655895067611
    One-Electron Energy =                -372.1385212419722848
    Two-Electron Energy =                 135.8766137752903091
    Total Energy =                       -154.1445418771751861

Computation Completed


Properties will be evaluated at   0.000000,   0.000000,   0.000000 [a0]

Properties computed using the SCF density matrix


 Multipole Moments:

 ------------------------------------------------------------------------------------
     Multipole            Electronic (a.u.)      Nuclear  (a.u.)        Total (a.u.)
 ------------------------------------------------------------------------------------

 L = 1.  Multiply by 2.5417464519 to convert [e a0] to [Debye]
 Dipole X            :        -89.9157011           90.1796488            0.2639477
 Dipole Y            :          6.5896423           -5.9013350            0.6883073
 Dipole Z            :         -3.4820391            3.3923948           -0.0896444
 Magnitude           :                                                    0.7426112

 ------------------------------------------------------------------------------------

*** tstop() called on Moses-MBP.lan at Thu Feb 27 17:26:29 2025
Module time:
	user time   =      71.87 seconds =       1.20 minutes
	system time =       6.81 seconds =       0.11 minutes
	total time  =         11 seconds =       0.18 minutes
Total time:
	user time   =      71.87 seconds =       1.20 minutes
	system time =       6.81 seconds =       0.11 minutes
	total time  =         11 seconds =       0.18 minutes

*** tstart() called on Moses-MBP.lan
*** at Thu Feb 27 17:26:29 2025


  //>>>>>>>>>>>>>>>>>>>>>>>>>>>>>>>>>>>//
  //               DFMP2               //
  //<<<<<<<<<<<<<<<<<<<<<<<<<<<<<<<<<<<//

   => Loading Basis Set <=

    Name: (AUG-CC-PVTZ AUX)
    Role: RIFIT
    Keyword: DF_BASIS_MP2
    atoms 1-2, 10-11 entry C          line   148 file /Users/moseschung/miniconda3/envs/psi4/share/psi4/basis/aug-cc-pvtz-ri.gbs 
    atoms 3, 12      entry O          line   264 file /Users/moseschung/miniconda3/envs/psi4/share/psi4/basis/aug-cc-pvtz-ri.gbs 
    atoms 4-9, 13-18 entry H          line    30 file /Users/moseschung/miniconda3/envs/psi4/share/psi4/basis/aug-cc-pvtz-ri.gbs 

	 --------------------------------------------------------
	                          DF-MP2                         
	      2nd-Order Density-Fitted Moller-Plesset Theory     
	              RMP2 Wavefunction,  10 Threads             
	                                                         
	        Rob Parrish, Justin Turney, Andy Simmonett,      
	           Ed Hohenstein, and C. David Sherrill          
	 --------------------------------------------------------

   => Auxiliary Basis Set <=

  Basis Set: (AUG-CC-PVTZ AUX)
    Blend: AUG-CC-PVTZ-RI
    Number of shells: 336
    Number of basis functions: 1188
    Number of Cartesian functions: 1476
    Spherical Harmonics?: true
    Max angular momentum: 4

	 --------------------------------------------------------
	                 NBF =   552, NAUX =  1188
	 --------------------------------------------------------
	   CLASS    FOCC     OCC    AOCC    AVIR     VIR    FVIR
	   PAIRS       0      13      13     539     539       0
	 --------------------------------------------------------

	-----------------------------------------------------------
	 ==================> DF-MP2 Energies <==================== 
	-----------------------------------------------------------
	 Reference Energy          =    -154.1445418771751861 [Eh]
	 Singles Energy            =      -0.0000000000000000 [Eh]
	 Same-Spin Energy          =      -0.1483802166501133 [Eh]
	 Opposite-Spin Energy      =      -0.5191801099254366 [Eh]
	 Correlation Energy        =      -0.6675603265755499 [Eh]
	 Total Energy              =    -154.8121022037507259 [Eh]
	-----------------------------------------------------------
	 ================> DF-SCS-MP2 Energies <================== 
	-----------------------------------------------------------
	 SCS Same-Spin Scale       =       0.3333333333333333 [-]
	 SCS Opposite-Spin Scale   =       1.2000000000000000 [-]
	 SCS Same-Spin Energy      =      -0.0494600722167044 [Eh]
	 SCS Opposite-Spin Energy  =      -0.6230161319105240 [Eh]
	 SCS Correlation Energy    =      -0.6724762041272284 [Eh]
	 SCS Total Energy          =    -154.8170180813024217 [Eh]
	-----------------------------------------------------------


*** tstop() called on Moses-MBP.lan at Thu Feb 27 17:26:32 2025
Module time:
	user time   =      20.34 seconds =       0.34 minutes
	system time =       2.17 seconds =       0.04 minutes
	total time  =          3 seconds =       0.05 minutes
Total time:
	user time   =      92.22 seconds =       1.54 minutes
	system time =       8.99 seconds =       0.15 minutes
	total time  =         14 seconds =       0.23 minutes

    Psi4 stopped on: Thursday, 27 February 2025 05:26PM
    Psi4 wall time for execution: 0:00:13.87


    -----------------------------------------------------------------------
          Psi4: An Open-Source Ab Initio Electronic Structure Package
                               Psi4 1.9.1 release

                         Git: Rev {} zzzzzzz 


    D. G. A. Smith, L. A. Burns, A. C. Simmonett, R. M. Parrish,
    M. C. Schieber, R. Galvelis, P. Kraus, H. Kruse, R. Di Remigio,
    A. Alenaizan, A. M. James, S. Lehtola, J. P. Misiewicz, M. Scheurer,
    R. A. Shaw, J. B. Schriber, Y. Xie, Z. L. Glick, D. A. Sirianni,
    J. S. O'Brien, J. M. Waldrop, A. Kumar, E. G. Hohenstein,
    B. P. Pritchard, B. R. Brooks, H. F. Schaefer III, A. Yu. Sokolov,
    K. Patkowski, A. E. DePrince III, U. Bozkaya, R. A. King,
    F. A. Evangelista, J. M. Turney, T. D. Crawford, C. D. Sherrill,
    J. Chem. Phys. 152(18) 184108 (2020). https://doi.org/10.1063/5.0006002

                            Additional Code Authors
    E. T. Seidl, C. L. Janssen, E. F. Valeev, M. L. Leininger,
    J. F. Gonthier, R. M. Richard, H. R. McAlexander, M. Saitow, X. Wang,
    P. Verma, M. H. Lechner, A. Jiang, S. Behnle, A. G. Heide,
    M. F. Herbst, and D. L. Poole

             Previous Authors, Complete List of Code Contributors,
                       and Citations for Specific Modules
    https://github.com/psi4/psi4/blob/master/codemeta.json
    https://github.com/psi4/psi4/graphs/contributors
    http://psicode.org/psi4manual/master/introduction.html#citing-psifour

    -----------------------------------------------------------------------


    Psi4 started on: Thursday, 27 February 2025 05:26PM

    Process ID: 30740
    Host:       Moses-MBP.lan
    PSIDATADIR: /Users/moseschung/miniconda3/envs/psi4/share/psi4
    Memory:     9.3 GiB
    Threads:    10
    
  ==> Input QCSchema <==

--------------------------------------------------------------------------
{'driver': 'energy',
 'extras': {'psiapi': True, 'wfn_qcvars_only': True},
 'id': None,
 'keywords': {'SCF_TYPE': 'DF', 'function_kwargs': {}},
 'model': {'basis': 'aug-cc-pvtz', 'method': 'mp2'},
 'molecule': {'atom_labels': ['', '', '', '', '', '', '', '', '', '', '', '', '', '', '', '', '', ''],
              'atomic_numbers': [6, 6, 8, 1, 1, 1, 1, 1, 1, 6, 6, 8, 1, 1, 1, 1, 1, 1],
              'extras': {},
              'fix_com': True,
              'fix_orientation': True,
              'fix_symmetry': 'c1',
              'fragment_charges': [0.0, 0.0],
              'fragment_multiplicities': [1, 1],
              'fragments': [[0, 1, 2, 3, 4, 5, 6, 7, 8], [9, 10, 11, 12, 13, 14, 15, 16, 17]],
              'geometry': [-3.186924844826103, 2.535819708299609, -0.08000533497350806, -4.275482682134831,
                           -0.050017271088617796, 0.466764242714209, -3.099141397120211, -1.9813230404848945,
                           -0.9122822945998956, -1.4374711999348844, -2.2546303505576093, -0.19230608943109037,
                           -4.243277969504778, 4.016845315974045, 0.8964237129550535, -3.2419139853508008,
                           2.9212161235038545, -2.106638338768504, -1.2136388095527808, 2.668722256976932,
                           0.5293330747281177, -6.276808473657696, -0.08296275635984957, -0.05275170479215527,
                           -4.198958222684416, -0.4320839888598069, 2.5112551583947824, 5.2310699406257175,
                           1.233314637971048, -0.03844458829631406, 3.1713270453865743, -0.5451406337675725,
                           -0.8608288316559299, 1.8909941316880106, -1.6370716322102419, 1.2290589747365168,
                           1.6036763921211512, -0.3356474852254431, 2.466816358828516, 6.240032513530162,
                           2.000018101044049, -1.6651472932561688, 6.590790248854765, 0.2715725414895445,
                           1.1789887913163861, 4.440962219488922, 2.832582299041506, 1.0108239531380194,
                           3.9443195170050993, -2.128899312526398, -1.935678595650586, 1.8175329182869628,
                           0.4265678782995955, -2.100239726107705],
              'mass_numbers': [12, 12, 16, 1, 1, 1, 1, 1, 1, 12, 12, 16, 1, 1, 1, 1, 1, 1],
              'masses': [12.0, 12.0, 15.99491461957, 1.00782503223, 1.00782503223, 1.00782503223, 1.00782503223,
                         1.00782503223, 1.00782503223, 12.0, 12.0, 15.99491461957, 1.00782503223, 1.00782503223,
                         1.00782503223, 1.00782503223, 1.00782503223, 1.00782503223],
              'molecular_charge': 0.0,
              'molecular_multiplicity': 1,
              'name': 'dimer',
              'provenance': {'creator': 'QCElemental',
                             'routine': 'qcelemental.molparse.from_string',
                             'version': '0.29.0'},
              'real': [True, True, True, True, True, True, True, True, True, False, False, False, False, False, False,
                       False, False, False],
              'schema_name': 'qcschema_molecule',
              'schema_version': 2,
              'symbols': ['C', 'C', 'O', 'H', 'H', 'H', 'H', 'H', 'H', 'C', 'C', 'O', 'H', 'H', 'H', 'H', 'H', 'H'],
              'validated': True},
 'protocols': {'stdout': True},
 'provenance': {'creator': 'QCElemental', 'routine': 'qcelemental.models.results', 'version': '0.29.0'},
 'schema_name': 'qcschema_input',
 'schema_version': 1}
--------------------------------------------------------------------------

Scratch directory: /tmp/
   => Libint2 <=

    Primary   basis highest AM E, G, H:  6, 6, 3
    Auxiliary basis highest AM E, G, H:  7, 7, 4
    Onebody   basis highest AM E, G, H:  -, -, -
    Solid Harmonics ordering:            Gaussian

*** tstart() called on Moses-MBP.lan
*** at Thu Feb 27 17:26:32 2025

   => Loading Basis Set <=

    Name: AUG-CC-PVTZ
    Role: ORBITAL
    Keyword: BASIS
    atoms 1-2, 10-11 entry C          line   239 file /Users/moseschung/miniconda3/envs/psi4/share/psi4/basis/aug-cc-pvtz.gbs 
    atoms 3, 12      entry O          line   331 file /Users/moseschung/miniconda3/envs/psi4/share/psi4/basis/aug-cc-pvtz.gbs 
    atoms 4-9, 13-18 entry H          line    40 file /Users/moseschung/miniconda3/envs/psi4/share/psi4/basis/aug-cc-pvtz.gbs 


         ---------------------------------------------------------
                                   SCF
               by Justin Turney, Rob Parrish, Andy Simmonett
                          and Daniel G. A. Smith
                              RHF Reference
                       10 Threads,   9536 MiB Core
         ---------------------------------------------------------

  ==> Geometry <==

    Molecular point group: c1
    Full point group: C1

    Geometry (in Bohr), charge = 0, multiplicity = 1:

       Center              X                  Y                   Z               Mass       
    ------------   -----------------  -----------------  -----------------  -----------------
         C           -3.186924844826     2.535819708300    -0.080005334974    12.000000000000
         C           -4.275482682135    -0.050017271089     0.466764242714    12.000000000000
         O           -3.099141397120    -1.981323040485    -0.912282294600    15.994914619570
         H           -1.437471199935    -2.254630350558    -0.192306089431     1.007825032230
         H           -4.243277969505     4.016845315974     0.896423712955     1.007825032230
         H           -3.241913985351     2.921216123504    -2.106638338769     1.007825032230
         H           -1.213638809553     2.668722256977     0.529333074728     1.007825032230
         H           -6.276808473658    -0.082962756360    -0.052751704792     1.007825032230
         H           -4.198958222684    -0.432083988860     2.511255158395     1.007825032230
      Gh(C)           5.231069940626     1.233314637971    -0.038444588296    12.000000000000
      Gh(C)           3.171327045387    -0.545140633768    -0.860828831656    12.000000000000
      Gh(O)           1.890994131688    -1.637071632210     1.229058974737    15.994914619570
      Gh(H)           1.603676392121    -0.335647485225     2.466816358829     1.007825032230
      Gh(H)           6.240032513530     2.000018101044    -1.665147293256     1.007825032230
      Gh(H)           6.590790248855     0.271572541490     1.178988791316     1.007825032230
      Gh(H)           4.440962219489     2.832582299042     1.010823953138     1.007825032230
      Gh(H)           3.944319517005    -2.128899312526    -1.935678595651     1.007825032230
      Gh(H)           1.817532918287     0.426567878300    -2.100239726108     1.007825032230

  Running in c1 symmetry.

  Rotational constants: A =      0.17731  B =      0.04645  C =      0.04082 [cm^-1]
  Rotational constants: A =   5315.58557  B =   1392.50719  C =   1223.86126 [MHz]
  Nuclear repulsion =   82.066671442066408

  Charge       = 0
  Multiplicity = 1
  Electrons    = 26
  Nalpha       = 13
  Nbeta        = 13

  ==> Algorithm <==

  SCF Algorithm Type is DF.
  DIIS enabled.
  MOM disabled.
  Fractional occupation disabled.
  Guess Type is SAD.
  Energy threshold   = 1.00e-08
  Density threshold  = 1.00e-08
  Integral threshold = 1.00e-12

  ==> Primary Basis <==

  Basis Set: AUG-CC-PVTZ
    Blend: AUG-CC-PVTZ
    Number of shells: 192
    Number of basis functions: 552
    Number of Cartesian functions: 630
    Spherical Harmonics?: true
    Max angular momentum: 3

   => Loading Basis Set <=

    Name: (AUG-CC-PVTZ AUX)
    Role: JKFIT
    Keyword: DF_BASIS_SCF
    atoms 1-2, 10-11 entry C          line   162 file /Users/moseschung/miniconda3/envs/psi4/share/psi4/basis/aug-cc-pvtz-jkfit.gbs 
    atoms 3, 12      entry O          line   286 file /Users/moseschung/miniconda3/envs/psi4/share/psi4/basis/aug-cc-pvtz-jkfit.gbs 
    atoms 4-9, 13-18 entry H          line    70 file /Users/moseschung/miniconda3/envs/psi4/share/psi4/basis/aug-cc-pvtz-jkfit.gbs 

  ==> Integral Setup <==

  DFHelper Memory: AOs need 2.625 GiB; user supplied 6.985 GiB. 
  Using in-core AOs.

  ==> MemDFJK: Density-Fitted J/K Matrices <==

    J tasked:                   Yes
    K tasked:                   Yes
    wK tasked:                   No
    OpenMP threads:              10
    Memory [MiB]:              7152
    Algorithm:                 Core
    Schwarz Cutoff:           1E-12
    Mask sparsity (%):       5.2005
    Fitting Condition:        1E-10

   => Auxiliary Basis Set <=

  Basis Set: (AUG-CC-PVTZ AUX)
    Blend: AUG-CC-PVTZ-JKFIT
    Number of shells: 348
    Number of basis functions: 1176
    Number of Cartesian functions: 1446
    Spherical Harmonics?: true
    Max angular momentum: 4

  Minimum eigenvalue in the overlap matrix is 8.0836474447E-06.
  Reciprocal condition number of the overlap matrix is 4.2294658927E-07.
    Using symmetric orthogonalization.

  ==> Pre-Iterations <==

  SCF Guess: Superposition of Atomic Densities via on-the-fly atomic UHF (no occupation information).

   -------------------------
    Irrep   Nso     Nmo    
   -------------------------
     A        552     552 
   -------------------------
    Total     552     552
   -------------------------

  ==> Iterations <==

                           Total Energy        Delta E     RMS |[F,P]|

   @DF-RHF iter SAD:  -153.45143785937819   -1.53451e+02   0.00000e+00 
   @DF-RHF iter   1:  -154.00203801249054   -5.50600e-01   9.39846e-04 ADIIS/DIIS
   @DF-RHF iter   2:  -154.11417386582235   -1.12136e-01   4.98981e-04 ADIIS/DIIS
   @DF-RHF iter   3:  -154.14271460053362   -2.85407e-02   8.38336e-05 DIIS
   @DF-RHF iter   4:  -154.14430010294197   -1.58550e-03   3.22796e-05 DIIS
   @DF-RHF iter   5:  -154.14448804674396   -1.87944e-04   6.22790e-06 DIIS
   @DF-RHF iter   6:  -154.14449861644977   -1.05697e-05   1.43649e-06 DIIS
   @DF-RHF iter   7:  -154.14449936378384   -7.47334e-07   4.16672e-07 DIIS
   @DF-RHF iter   8:  -154.14449942072659   -5.69428e-08   1.30572e-07 DIIS
   @DF-RHF iter   9:  -154.14449942720833   -6.48174e-09   3.32840e-08 DIIS
   @DF-RHF iter  10:  -154.14449942766890   -4.60574e-10   6.67887e-09 DIIS
  Energy and wave function converged.


  ==> Post-Iterations <==

    Orbital Energies [Eh]
    ---------------------

    Doubly Occupied:                                                      

       1A    -20.557771     2A    -11.273444     3A    -11.215680  
       4A     -1.364200     5A     -1.011730     6A     -0.844912  
       7A     -0.693580     8A     -0.627607     9A     -0.601635  
      10A     -0.548044    11A     -0.525759    12A     -0.476163  
      13A     -0.442949  

    Virtual:                                                              

      14A      0.019535    15A      0.032938    16A      0.035492  
      17A      0.038401    18A      0.049536    19A      0.051286  
      20A      0.053748    21A      0.062624    22A      0.071693  
      23A      0.074205    24A      0.082143    25A      0.087919  
      26A      0.092285    27A      0.101866    28A      0.110557  
      29A      0.114425    30A      0.120265    31A      0.126315  
      32A      0.131992    33A      0.137849    34A      0.139463  
      35A      0.143749    36A      0.146586    37A      0.156356  
      38A      0.171195    39A      0.176129    40A      0.180299  
      41A      0.182195    42A      0.193800    43A      0.201098  
      44A      0.205047    45A      0.217998    46A      0.227546  
      47A      0.238312    48A      0.244531    49A      0.247649  
      50A      0.257169    51A      0.270236    52A      0.271178  
      53A      0.277029    54A      0.279210    55A      0.291098  
      56A      0.294638    57A      0.301995    58A      0.308496  
      59A      0.310870    60A      0.314464    61A      0.327077  
      62A      0.331768    63A      0.337515    64A      0.343907  
      65A      0.347164    66A      0.356655    67A      0.360704  
      68A      0.365173    69A      0.369996    70A      0.372195  
      71A      0.375914    72A      0.381336    73A      0.385797  
      74A      0.398897    75A      0.404553    76A      0.409278  
      77A      0.418678    78A      0.421669    79A      0.428153  
      80A      0.428437    81A      0.430739    82A      0.439131  
      83A      0.442891    84A      0.454454    85A      0.458052  
      86A      0.470025    87A      0.476666    88A      0.480194  
      89A      0.482361    90A      0.489808    91A      0.494330  
      92A      0.502376    93A      0.504319    94A      0.510651  
      95A      0.518349    96A      0.520946    97A      0.525875  
      98A      0.527669    99A      0.543079   100A      0.546232  
     101A      0.549682   102A      0.561955   103A      0.570744  
     104A      0.574360   105A      0.584305   106A      0.589813  
     107A      0.598078   108A      0.609785   109A      0.610988  
     110A      0.624618   111A      0.626422   112A      0.632639  
     113A      0.633823   114A      0.641937   115A      0.654565  
     116A      0.660752   117A      0.665754   118A      0.676483  
     119A      0.683135   120A      0.696699   121A      0.701924  
     122A      0.712009   123A      0.720748   124A      0.738715  
     125A      0.748185   126A      0.759278   127A      0.770318  
     128A      0.779813   129A      0.789995   130A      0.801863  
     131A      0.813973   132A      0.816542   133A      0.837885  
     134A      0.840580   135A      0.854455   136A      0.859156  
     137A      0.872716   138A      0.879529   139A      0.889780  
     140A      0.895525   141A      0.900399   142A      0.908911  
     143A      0.915931   144A      0.923196   145A      0.942489  
     146A      0.949719   147A      0.965890   148A      0.967535  
     149A      0.973230   150A      0.979062   151A      0.990831  
     152A      0.995387   153A      1.002282   154A      1.014186  
     155A      1.024608   156A      1.029130   157A      1.035672  
     158A      1.037186   159A      1.043772   160A      1.054415  
     161A      1.058348   162A      1.066837   163A      1.075949  
     164A      1.082774   165A      1.089310   166A      1.095930  
     167A      1.105043   168A      1.114089   169A      1.117065  
     170A      1.126430   171A      1.131796   172A      1.138208  
     173A      1.143551   174A      1.149732   175A      1.153916  
     176A      1.170790   177A      1.178728   178A      1.182731  
     179A      1.189921   180A      1.197632   181A      1.206006  
     182A      1.208842   183A      1.215624   184A      1.228276  
     185A      1.231049   186A      1.233872   187A      1.235114  
     188A      1.254522   189A      1.257871   190A      1.262889  
     191A      1.277821   192A      1.285011   193A      1.287441  
     194A      1.292544   195A      1.302760   196A      1.313784  
     197A      1.315864   198A      1.331473   199A      1.335408  
     200A      1.345000   201A      1.357215   202A      1.372046  
     203A      1.383666   204A      1.387230   205A      1.394521  
     206A      1.396042   207A      1.409528   208A      1.417093  
     209A      1.429246   210A      1.436059   211A      1.439494  
     212A      1.450941   213A      1.457366   214A      1.467901  
     215A      1.476645   216A      1.494006   217A      1.500345  
     218A      1.505603   219A      1.519720   220A      1.530067  
     221A      1.534474   222A      1.558244   223A      1.563881  
     224A      1.570535   225A      1.575910   226A      1.584771  
     227A      1.595780   228A      1.612506   229A      1.631189  
     230A      1.636127   231A      1.638286   232A      1.650484  
     233A      1.659914   234A      1.671457   235A      1.678016  
     236A      1.690036   237A      1.699712   238A      1.711996  
     239A      1.730520   240A      1.732773   241A      1.746120  
     242A      1.762913   243A      1.772125   244A      1.778271  
     245A      1.796657   246A      1.800917   247A      1.822686  
     248A      1.824050   249A      1.829909   250A      1.842053  
     251A      1.851316   252A      1.862092   253A      1.864583  
     254A      1.885897   255A      1.894352   256A      1.900788  
     257A      1.923387   258A      1.928900   259A      1.953374  
     260A      1.965201   261A      1.974611   262A      1.984167  
     263A      1.988288   264A      2.004055   265A      2.007375  
     266A      2.012132   267A      2.025781   268A      2.030197  
     269A      2.051178   270A      2.062195   271A      2.068096  
     272A      2.076944   273A      2.109524   274A      2.117587  
     275A      2.123946   276A      2.128234   277A      2.139671  
     278A      2.156889   279A      2.182659   280A      2.188503  
     281A      2.199909   282A      2.204582   283A      2.214007  
     284A      2.229160   285A      2.252962   286A      2.266906  
     287A      2.290334   288A      2.302440   289A      2.316819  
     290A      2.322065   291A      2.333263   292A      2.345583  
     293A      2.376400   294A      2.380605   295A      2.403053  
     296A      2.407947   297A      2.432025   298A      2.458639  
     299A      2.461159   300A      2.484653   301A      2.495833  
     302A      2.498216   303A      2.525655   304A      2.570962  
     305A      2.584496   306A      2.621443   307A      2.633935  
     308A      2.686331   309A      2.690659   310A      2.716368  
     311A      2.730411   312A      2.745852   313A      2.753283  
     314A      2.773600   315A      2.789578   316A      2.811363  
     317A      2.848232   318A      2.859820   319A      2.877719  
     320A      2.901553   321A      2.901977   322A      2.933923  
     323A      2.945834   324A      2.985142   325A      2.994797  
     326A      3.044429   327A      3.067215   328A      3.081727  
     329A      3.107260   330A      3.114137   331A      3.139479  
     332A      3.164427   333A      3.218751   334A      3.229284  
     335A      3.261630   336A      3.292103   337A      3.311023  
     338A      3.340534   339A      3.359466   340A      3.394612  
     341A      3.439586   342A      3.460289   343A      3.485943  
     344A      3.508389   345A      3.541278   346A      3.559629  
     347A      3.587434   348A      3.631697   349A      3.637371  
     350A      3.657966   351A      3.669599   352A      3.689134  
     353A      3.716522   354A      3.735184   355A      3.744786  
     356A      3.763331   357A      3.816468   358A      3.824493  
     359A      3.845698   360A      3.853526   361A      3.895337  
     362A      3.910875   363A      3.939175   364A      3.953869  
     365A      3.967013   366A      3.988700   367A      4.006091  
     368A      4.011372   369A      4.049901   370A      4.071171  
     371A      4.089424   372A      4.113974   373A      4.135904  
     374A      4.151715   375A      4.156764   376A      4.175716  
     377A      4.179272   378A      4.200643   379A      4.213897  
     380A      4.221114   381A      4.232167   382A      4.245399  
     383A      4.270966   384A      4.282976   385A      4.293225  
     386A      4.316819   387A      4.338412   388A      4.345436  
     389A      4.372167   390A      4.380970   391A      4.384802  
     392A      4.420698   393A      4.432043   394A      4.463583  
     395A      4.477110   396A      4.485864   397A      4.495999  
     398A      4.533844   399A      4.538752   400A      4.555475  
     401A      4.579161   402A      4.598186   403A      4.612161  
     404A      4.630643   405A      4.645145   406A      4.649603  
     407A      4.683952   408A      4.691214   409A      4.692375  
     410A      4.712387   411A      4.742467   412A      4.750775  
     413A      4.767054   414A      4.795202   415A      4.813371  
     416A      4.821866   417A      4.835372   418A      4.851983  
     419A      4.874211   420A      4.889499   421A      4.894088  
     422A      4.905148   423A      4.920553   424A      4.951571  
     425A      4.967330   426A      4.989083   427A      4.992927  
     428A      5.001113   429A      5.011095   430A      5.024194  
     431A      5.040670   432A      5.051084   433A      5.077906  
     434A      5.094597   435A      5.104674   436A      5.128662  
     437A      5.151973   438A      5.165392   439A      5.193859  
     440A      5.211810   441A      5.229909   442A      5.265114  
     443A      5.280519   444A      5.294554   445A      5.314122  
     446A      5.333394   447A      5.359453   448A      5.384112  
     449A      5.393434   450A      5.398982   451A      5.405241  
     452A      5.412241   453A      5.435337   454A      5.452526  
     455A      5.491704   456A      5.500671   457A      5.518231  
     458A      5.524082   459A      5.540378   460A      5.572442  
     461A      5.591047   462A      5.611667   463A      5.623147  
     464A      5.637237   465A      5.665054   466A      5.681650  
     467A      5.690108   468A      5.708763   469A      5.711363  
     470A      5.736164   471A      5.752872   472A      5.768716  
     473A      5.797522   474A      5.823111   475A      5.868351  
     476A      5.881957   477A      5.901129   478A      5.949486  
     479A      6.016144   480A      6.048485   481A      6.064524  
     482A      6.098110   483A      6.132522   484A      6.162495  
     485A      6.174227   486A      6.191223   487A      6.221592  
     488A      6.238376   489A      6.285516   490A      6.296842  
     491A      6.312902   492A      6.377013   493A      6.409799  
     494A      6.474952   495A      6.551564   496A      6.719295  
     497A      6.735635   498A      6.773611   499A      6.847747  
     500A      6.863438   501A      6.882479   502A      6.951785  
     503A      7.006218   504A      7.019436   505A      7.032533  
     506A      7.053704   507A      7.131539   508A      7.184471  
     509A      7.207110   510A      7.316351   511A      7.397236  
     512A      7.439285   513A      7.559663   514A      7.580363  
     515A      7.655082   516A      7.799933   517A      7.826756  
     518A      7.851420   519A      7.885853   520A      7.905340  
     521A      7.940210   522A      7.961576   523A      8.032075  
     524A      8.088419   525A      8.176598   526A      8.248574  
     527A      8.280798   528A      8.310576   529A      8.345880  
     530A      8.405565   531A      8.476230   532A      8.597672  
     533A      8.675217   534A      8.904632   535A      9.045122  
     536A     10.058529   537A     10.136906   538A     10.242356  
     539A     10.411002   540A     10.644986   541A     10.782912  
     542A     11.056658   543A     12.191586   544A     12.586230  
     545A     13.321360   546A     14.167058   547A     16.809365  
     548A     17.771025   549A     18.647355   550A     53.055852  
     551A     54.361772   552A     67.939664  

    Final Occupation by Irrep:
              A 
    DOCC [    13 ]
    NA   [    13 ]
    NB   [    13 ]

  @DF-RHF Final Energy:  -154.14449942766890

   => Energetics <=

    Nuclear Repulsion Energy =             82.0666714420664078
    One-Electron Energy =                -372.0553922060517493
    Two-Electron Energy =                 135.8442213363164228
    Total Energy =                       -154.1444994276689044

Computation Completed


Properties will be evaluated at   0.000000,   0.000000,   0.000000 [a0]

Properties computed using the SCF density matrix


 Multipole Moments:

 ------------------------------------------------------------------------------------
     Multipole            Electronic (a.u.)      Nuclear  (a.u.)        Total (a.u.)
 ------------------------------------------------------------------------------------

 L = 1.  Multiply by 2.5417464519 to convert [e a0] to [Debye]
 Dipole X            :         90.4508146          -90.1796450            0.2711696
 Dipole Y            :         -5.5350874            5.9013369            0.3662495
 Dipole Z            :          3.9142516           -3.3923891            0.5218625
 Magnitude           :                                                    0.6928290

 ------------------------------------------------------------------------------------

*** tstop() called on Moses-MBP.lan at Thu Feb 27 17:26:42 2025
Module time:
	user time   =      70.52 seconds =       1.18 minutes
	system time =       5.64 seconds =       0.09 minutes
	total time  =         10 seconds =       0.17 minutes
Total time:
	user time   =     163.05 seconds =       2.72 minutes
	system time =      14.71 seconds =       0.25 minutes
	total time  =         24 seconds =       0.40 minutes

*** tstart() called on Moses-MBP.lan
*** at Thu Feb 27 17:26:42 2025


  //>>>>>>>>>>>>>>>>>>>>>>>>>>>>>>>>>>>//
  //               DFMP2               //
  //<<<<<<<<<<<<<<<<<<<<<<<<<<<<<<<<<<<//

   => Loading Basis Set <=

    Name: (AUG-CC-PVTZ AUX)
    Role: RIFIT
    Keyword: DF_BASIS_MP2
    atoms 1-2, 10-11 entry C          line   148 file /Users/moseschung/miniconda3/envs/psi4/share/psi4/basis/aug-cc-pvtz-ri.gbs 
    atoms 3, 12      entry O          line   264 file /Users/moseschung/miniconda3/envs/psi4/share/psi4/basis/aug-cc-pvtz-ri.gbs 
    atoms 4-9, 13-18 entry H          line    30 file /Users/moseschung/miniconda3/envs/psi4/share/psi4/basis/aug-cc-pvtz-ri.gbs 

	 --------------------------------------------------------
	                          DF-MP2                         
	      2nd-Order Density-Fitted Moller-Plesset Theory     
	              RMP2 Wavefunction,  10 Threads             
	                                                         
	        Rob Parrish, Justin Turney, Andy Simmonett,      
	           Ed Hohenstein, and C. David Sherrill          
	 --------------------------------------------------------

   => Auxiliary Basis Set <=

  Basis Set: (AUG-CC-PVTZ AUX)
    Blend: AUG-CC-PVTZ-RI
    Number of shells: 336
    Number of basis functions: 1188
    Number of Cartesian functions: 1476
    Spherical Harmonics?: true
    Max angular momentum: 4

	 --------------------------------------------------------
	                 NBF =   552, NAUX =  1188
	 --------------------------------------------------------
	   CLASS    FOCC     OCC    AOCC    AVIR     VIR    FVIR
	   PAIRS       0      13      13     539     539       0
	 --------------------------------------------------------

	-----------------------------------------------------------
	 ==================> DF-MP2 Energies <==================== 
	-----------------------------------------------------------
	 Reference Energy          =    -154.1444994276689044 [Eh]
	 Singles Energy            =      -0.0000000000000000 [Eh]
	 Same-Spin Energy          =      -0.1482493283472048 [Eh]
	 Opposite-Spin Energy      =      -0.5187288106711436 [Eh]
	 Correlation Energy        =      -0.6669781390183485 [Eh]
	 Total Energy              =    -154.8114775666872447 [Eh]
	-----------------------------------------------------------
	 ================> DF-SCS-MP2 Energies <================== 
	-----------------------------------------------------------
	 SCS Same-Spin Scale       =       0.3333333333333333 [-]
	 SCS Opposite-Spin Scale   =       1.2000000000000000 [-]
	 SCS Same-Spin Energy      =      -0.0494164427824016 [Eh]
	 SCS Opposite-Spin Energy  =      -0.6224745728053723 [Eh]
	 SCS Correlation Energy    =      -0.6718910155877740 [Eh]
	 SCS Total Energy          =    -154.8163904432566653 [Eh]
	-----------------------------------------------------------


*** tstop() called on Moses-MBP.lan at Thu Feb 27 17:26:45 2025
Module time:
	user time   =      20.58 seconds =       0.34 minutes
	system time =       2.03 seconds =       0.03 minutes
	total time  =          3 seconds =       0.05 minutes
Total time:
	user time   =     183.64 seconds =       3.06 minutes
	system time =      16.74 seconds =       0.28 minutes
	total time  =         27 seconds =       0.45 minutes

    Psi4 stopped on: Thursday, 27 February 2025 05:26PM
    Psi4 wall time for execution: 0:00:12.90


    -----------------------------------------------------------------------
          Psi4: An Open-Source Ab Initio Electronic Structure Package
                               Psi4 1.9.1 release

                         Git: Rev {} zzzzzzz 


    D. G. A. Smith, L. A. Burns, A. C. Simmonett, R. M. Parrish,
    M. C. Schieber, R. Galvelis, P. Kraus, H. Kruse, R. Di Remigio,
    A. Alenaizan, A. M. James, S. Lehtola, J. P. Misiewicz, M. Scheurer,
    R. A. Shaw, J. B. Schriber, Y. Xie, Z. L. Glick, D. A. Sirianni,
    J. S. O'Brien, J. M. Waldrop, A. Kumar, E. G. Hohenstein,
    B. P. Pritchard, B. R. Brooks, H. F. Schaefer III, A. Yu. Sokolov,
    K. Patkowski, A. E. DePrince III, U. Bozkaya, R. A. King,
    F. A. Evangelista, J. M. Turney, T. D. Crawford, C. D. Sherrill,
    J. Chem. Phys. 152(18) 184108 (2020). https://doi.org/10.1063/5.0006002

                            Additional Code Authors
    E. T. Seidl, C. L. Janssen, E. F. Valeev, M. L. Leininger,
    J. F. Gonthier, R. M. Richard, H. R. McAlexander, M. Saitow, X. Wang,
    P. Verma, M. H. Lechner, A. Jiang, S. Behnle, A. G. Heide,
    M. F. Herbst, and D. L. Poole

             Previous Authors, Complete List of Code Contributors,
                       and Citations for Specific Modules
    https://github.com/psi4/psi4/blob/master/codemeta.json
    https://github.com/psi4/psi4/graphs/contributors
    http://psicode.org/psi4manual/master/introduction.html#citing-psifour

    -----------------------------------------------------------------------


    Psi4 started on: Thursday, 27 February 2025 05:26PM

    Process ID: 30740
    Host:       Moses-MBP.lan
    PSIDATADIR: /Users/moseschung/miniconda3/envs/psi4/share/psi4
    Memory:     9.3 GiB
    Threads:    10
    
  ==> Input QCSchema <==

--------------------------------------------------------------------------
{'driver': 'energy',
 'extras': {'psiapi': True, 'wfn_qcvars_only': True},
 'id': None,
 'keywords': {'SCF_TYPE': 'DF', 'function_kwargs': {}},
 'model': {'basis': 'aug-cc-pvtz', 'method': 'mp2'},
 'molecule': {'atom_labels': ['', '', '', '', '', '', '', '', '', '', '', '', '', '', '', '', '', ''],
              'atomic_numbers': [6, 6, 8, 1, 1, 1, 1, 1, 1, 6, 6, 8, 1, 1, 1, 1, 1, 1],
              'extras': {},
              'fix_com': True,
              'fix_orientation': True,
              'fix_symmetry': 'c1',
              'fragment_charges': [0.0, 0.0],
              'fragment_multiplicities': [1, 1],
              'fragments': [[0, 1, 2, 3, 4, 5, 6, 7, 8], [9, 10, 11, 12, 13, 14, 15, 16, 17]],
              'geometry': [-3.186924844826103, 2.535819708299609, -0.08000533497350806, -4.275482682134831,
                           -0.050017271088617796, 0.466764242714209, -3.099141397120211, -1.9813230404848945,
                           -0.9122822945998956, -1.4374711999348844, -2.2546303505576093, -0.19230608943109037,
                           -4.243277969504778, 4.016845315974045, 0.8964237129550535, -3.2419139853508008,
                           2.9212161235038545, -2.106638338768504, -1.2136388095527808, 2.668722256976932,
                           0.5293330747281177, -6.276808473657696, -0.08296275635984957, -0.05275170479215527,
                           -4.198958222684416, -0.4320839888598069, 2.5112551583947824, 5.2310699406257175,
                           1.233314637971048, -0.03844458829631406, 3.1713270453865743, -0.5451406337675725,
                           -0.8608288316559299, 1.8909941316880106, -1.6370716322102419, 1.2290589747365168,
                           1.6036763921211512, -0.3356474852254431, 2.466816358828516, 6.240032513530162,
                           2.000018101044049, -1.6651472932561688, 6.590790248854765, 0.2715725414895445,
                           1.1789887913163861, 4.440962219488922, 2.832582299041506, 1.0108239531380194,
                           3.9443195170050993, -2.128899312526398, -1.935678595650586, 1.8175329182869628,
                           0.4265678782995955, -2.100239726107705],
              'mass_numbers': [12, 12, 16, 1, 1, 1, 1, 1, 1, 12, 12, 16, 1, 1, 1, 1, 1, 1],
              'masses': [12.0, 12.0, 15.99491461957, 1.00782503223, 1.00782503223, 1.00782503223, 1.00782503223,
                         1.00782503223, 1.00782503223, 12.0, 12.0, 15.99491461957, 1.00782503223, 1.00782503223,
                         1.00782503223, 1.00782503223, 1.00782503223, 1.00782503223],
              'molecular_charge': 0.0,
              'molecular_multiplicity': 1,
              'name': 'dimer',
              'provenance': {'creator': 'QCElemental',
                             'routine': 'qcelemental.molparse.from_string',
                             'version': '0.29.0'},
              'real': [True, True, True, True, True, True, True, True, True, True, True, True, True, True, True, True,
                       True, True],
              'schema_name': 'qcschema_molecule',
              'schema_version': 2,
              'symbols': ['C', 'C', 'O', 'H', 'H', 'H', 'H', 'H', 'H', 'C', 'C', 'O', 'H', 'H', 'H', 'H', 'H', 'H'],
              'validated': True},
 'protocols': {'stdout': True},
 'provenance': {'creator': 'QCElemental', 'routine': 'qcelemental.models.results', 'version': '0.29.0'},
 'schema_name': 'qcschema_input',
 'schema_version': 1}
--------------------------------------------------------------------------

Scratch directory: /tmp/
   => Libint2 <=

    Primary   basis highest AM E, G, H:  6, 6, 3
    Auxiliary basis highest AM E, G, H:  7, 7, 4
    Onebody   basis highest AM E, G, H:  -, -, -
    Solid Harmonics ordering:            Gaussian

*** tstart() called on Moses-MBP.lan
*** at Thu Feb 27 17:26:45 2025

   => Loading Basis Set <=

    Name: AUG-CC-PVTZ
    Role: ORBITAL
    Keyword: BASIS
    atoms 1-2, 10-11 entry C          line   239 file /Users/moseschung/miniconda3/envs/psi4/share/psi4/basis/aug-cc-pvtz.gbs 
    atoms 3, 12      entry O          line   331 file /Users/moseschung/miniconda3/envs/psi4/share/psi4/basis/aug-cc-pvtz.gbs 
    atoms 4-9, 13-18 entry H          line    40 file /Users/moseschung/miniconda3/envs/psi4/share/psi4/basis/aug-cc-pvtz.gbs 


         ---------------------------------------------------------
                                   SCF
               by Justin Turney, Rob Parrish, Andy Simmonett
                          and Daniel G. A. Smith
                              RHF Reference
                       10 Threads,   9536 MiB Core
         ---------------------------------------------------------

  ==> Geometry <==

    Molecular point group: c1
    Full point group: C1

    Geometry (in Bohr), charge = 0, multiplicity = 1:

       Center              X                  Y                   Z               Mass       
    ------------   -----------------  -----------------  -----------------  -----------------
         C           -3.186924844826     2.535819708300    -0.080005334974    12.000000000000
         C           -4.275482682135    -0.050017271089     0.466764242714    12.000000000000
         O           -3.099141397120    -1.981323040485    -0.912282294600    15.994914619570
         H           -1.437471199935    -2.254630350558    -0.192306089431     1.007825032230
         H           -4.243277969505     4.016845315974     0.896423712955     1.007825032230
         H           -3.241913985351     2.921216123504    -2.106638338769     1.007825032230
         H           -1.213638809553     2.668722256977     0.529333074728     1.007825032230
         H           -6.276808473658    -0.082962756360    -0.052751704792     1.007825032230
         H           -4.198958222684    -0.432083988860     2.511255158395     1.007825032230
         C            5.231069940626     1.233314637971    -0.038444588296    12.000000000000
         C            3.171327045387    -0.545140633768    -0.860828831656    12.000000000000
         O            1.890994131688    -1.637071632210     1.229058974737    15.994914619570
         H            1.603676392121    -0.335647485225     2.466816358829     1.007825032230
         H            6.240032513530     2.000018101044    -1.665147293256     1.007825032230
         H            6.590790248855     0.271572541490     1.178988791316     1.007825032230
         H            4.440962219489     2.832582299042     1.010823953138     1.007825032230
         H            3.944319517005    -2.128899312526    -1.935678595651     1.007825032230
         H            1.817532918287     0.426567878300    -2.100239726108     1.007825032230

  Running in c1 symmetry.

  Rotational constants: A =      0.17731  B =      0.04645  C =      0.04082 [cm^-1]
  Rotational constants: A =   5315.58557  B =   1392.50719  C =   1223.86126 [MHz]
  Nuclear repulsion =  258.301202675172476

  Charge       = 0
  Multiplicity = 1
  Electrons    = 52
  Nalpha       = 26
  Nbeta        = 26

  ==> Algorithm <==

  SCF Algorithm Type is DF.
  DIIS enabled.
  MOM disabled.
  Fractional occupation disabled.
  Guess Type is SAD.
  Energy threshold   = 1.00e-08
  Density threshold  = 1.00e-08
  Integral threshold = 1.00e-12

  ==> Primary Basis <==

  Basis Set: AUG-CC-PVTZ
    Blend: AUG-CC-PVTZ
    Number of shells: 192
    Number of basis functions: 552
    Number of Cartesian functions: 630
    Spherical Harmonics?: true
    Max angular momentum: 3

   => Loading Basis Set <=

    Name: (AUG-CC-PVTZ AUX)
    Role: JKFIT
    Keyword: DF_BASIS_SCF
    atoms 1-2, 10-11 entry C          line   162 file /Users/moseschung/miniconda3/envs/psi4/share/psi4/basis/aug-cc-pvtz-jkfit.gbs 
    atoms 3, 12      entry O          line   286 file /Users/moseschung/miniconda3/envs/psi4/share/psi4/basis/aug-cc-pvtz-jkfit.gbs 
    atoms 4-9, 13-18 entry H          line    70 file /Users/moseschung/miniconda3/envs/psi4/share/psi4/basis/aug-cc-pvtz-jkfit.gbs 

  ==> Integral Setup <==

  DFHelper Memory: AOs need 2.625 GiB; user supplied 6.985 GiB. 
  Using in-core AOs.

  ==> MemDFJK: Density-Fitted J/K Matrices <==

    J tasked:                   Yes
    K tasked:                   Yes
    wK tasked:                   No
    OpenMP threads:              10
    Memory [MiB]:              7152
    Algorithm:                 Core
    Schwarz Cutoff:           1E-12
    Mask sparsity (%):       5.2005
    Fitting Condition:        1E-10

   => Auxiliary Basis Set <=

  Basis Set: (AUG-CC-PVTZ AUX)
    Blend: AUG-CC-PVTZ-JKFIT
    Number of shells: 348
    Number of basis functions: 1176
    Number of Cartesian functions: 1446
    Spherical Harmonics?: true
    Max angular momentum: 4

  Minimum eigenvalue in the overlap matrix is 8.0836474447E-06.
  Reciprocal condition number of the overlap matrix is 4.2294658927E-07.
    Using symmetric orthogonalization.

  ==> Pre-Iterations <==

  SCF Guess: Superposition of Atomic Densities via on-the-fly atomic UHF (no occupation information).

   -------------------------
    Irrep   Nso     Nmo    
   -------------------------
     A        552     552 
   -------------------------
    Total     552     552
   -------------------------

  ==> Iterations <==

                           Total Energy        Delta E     RMS |[F,P]|

   @DF-RHF iter SAD:  -307.13052162577486   -3.07131e+02   0.00000e+00 
   @DF-RHF iter   1:  -308.02012323267917   -8.89602e-01   1.28714e-03 ADIIS/DIIS
   @DF-RHF iter   2:  -308.23870355037081   -2.18580e-01   6.47547e-04 ADIIS/DIIS
   @DF-RHF iter   3:  -308.28754559568858   -4.88420e-02   1.16407e-04 ADIIS/DIIS
   @DF-RHF iter   4:  -308.29064169593596   -3.09610e-03   4.19850e-05 DIIS
   @DF-RHF iter   5:  -308.29095872787332   -3.17032e-04   8.83780e-06 DIIS
   @DF-RHF iter   6:  -308.29097965143643   -2.09236e-05   2.08587e-06 DIIS
   @DF-RHF iter   7:  -308.29098119797061   -1.54653e-06   5.96798e-07 DIIS
   @DF-RHF iter   8:  -308.29098131827999   -1.20309e-07   1.87649e-07 DIIS
   @DF-RHF iter   9:  -308.29098133099887   -1.27189e-08   4.78962e-08 DIIS
   @DF-RHF iter  10:  -308.29098133185636   -8.57483e-10   1.06685e-08 DIIS
   @DF-RHF iter  11:  -308.29098133189109   -3.47313e-11   3.81663e-09 DIIS
  Energy and wave function converged.


  ==> Post-Iterations <==

    Orbital Energies [Eh]
    ---------------------

    Doubly Occupied:                                                      

       1A    -20.577136     2A    -20.532092     3A    -11.285087  
       4A    -11.264295     5A    -11.230279     6A    -11.214138  
       7A     -1.383359     8A     -1.343134     9A     -1.028119  
      10A     -1.006338    11A     -0.864420    12A     -0.837000  
      13A     -0.697945    14A     -0.687222    15A     -0.640082  
      16A     -0.636557    17A     -0.616032    18A     -0.591091  
      19A     -0.554182    20A     -0.541829    21A     -0.538085  
      22A     -0.519270    23A     -0.501191    24A     -0.470405  
      25A     -0.454696    26A     -0.427349  

    Virtual:                                                              

      27A      0.025178    28A      0.033595    29A      0.037793  
      30A      0.040877    31A      0.050881    32A      0.052065  
      33A      0.054238    34A      0.062319    35A      0.075558  
      36A      0.078546    37A      0.083354    38A      0.084800  
      39A      0.101017    40A      0.113398    41A      0.121382  
      42A      0.126621    43A      0.130098    44A      0.134435  
      45A      0.140273    46A      0.141578    47A      0.145961  
      48A      0.148966    49A      0.153817    50A      0.157462  
      51A      0.172438    52A      0.181137    53A      0.184474  
      54A      0.191507    55A      0.196777    56A      0.206320  
      57A      0.216178    58A      0.222018    59A      0.225980  
      60A      0.236646    61A      0.247362    62A      0.256090  
      63A      0.262123    64A      0.270192    65A      0.279366  
      66A      0.287546    67A      0.295736    68A      0.297572  
      69A      0.302125    70A      0.307174    71A      0.315389  
      72A      0.318139    73A      0.326113    74A      0.332533  
      75A      0.342113    76A      0.345477    77A      0.348086  
      78A      0.350964    79A      0.358334    80A      0.361134  
      81A      0.364064    82A      0.369018    83A      0.379406  
      84A      0.388651    85A      0.390888    86A      0.394122  
      87A      0.398354    88A      0.402909    89A      0.406420  
      90A      0.417792    91A      0.423660    92A      0.426826  
      93A      0.431058    94A      0.434938    95A      0.439453  
      96A      0.441717    97A      0.449117    98A      0.456354  
      99A      0.462284   100A      0.470480   101A      0.476212  
     102A      0.480234   103A      0.487468   104A      0.492199  
     105A      0.498435   106A      0.499345   107A      0.503438  
     108A      0.506804   109A      0.512585   110A      0.520937  
     111A      0.523159   112A      0.533712   113A      0.540433  
     114A      0.540923   115A      0.547274   116A      0.552579  
     117A      0.559202   118A      0.568958   119A      0.571135  
     120A      0.576867   121A      0.590752   122A      0.594777  
     123A      0.604846   124A      0.622906   125A      0.627896  
     126A      0.632877   127A      0.635183   128A      0.639889  
     129A      0.650031   130A      0.656099   131A      0.673377  
     132A      0.687009   133A      0.692911   134A      0.715734  
     135A      0.734649   136A      0.743646   137A      0.751380  
     138A      0.759471   139A      0.760234   140A      0.773603  
     141A      0.792285   142A      0.798224   143A      0.810615  
     144A      0.822469   145A      0.829974   146A      0.830931  
     147A      0.836391   148A      0.853364   149A      0.858557  
     150A      0.862693   151A      0.868169   152A      0.873725  
     153A      0.887741   154A      0.890517   155A      0.902137  
     156A      0.903366   157A      0.906335   158A      0.916043  
     159A      0.922652   160A      0.930495   161A      0.936053  
     162A      0.941177   163A      0.953371   164A      0.962201  
     165A      0.967828   166A      0.974055   167A      0.979224  
     168A      0.987218   169A      0.991595   170A      0.994303  
     171A      1.002660   172A      1.010751   173A      1.022631  
     174A      1.029208   175A      1.033142   176A      1.042165  
     177A      1.050524   178A      1.056636   179A      1.065841  
     180A      1.071869   181A      1.083939   182A      1.093174  
     183A      1.094896   184A      1.102148   185A      1.111508  
     186A      1.116593   187A      1.129731   188A      1.133406  
     189A      1.146446   190A      1.152146   191A      1.159054  
     192A      1.163497   193A      1.172836   194A      1.178929  
     195A      1.181138   196A      1.186948   197A      1.198297  
     198A      1.203408   199A      1.213585   200A      1.219499  
     201A      1.227296   202A      1.232526   203A      1.245972  
     204A      1.252979   205A      1.260012   206A      1.266783  
     207A      1.271824   208A      1.287953   209A      1.300562  
     210A      1.306779   211A      1.317043   212A      1.326586  
     213A      1.329785   214A      1.335658   215A      1.344304  
     216A      1.348363   217A      1.363578   218A      1.371949  
     219A      1.384781   220A      1.397155   221A      1.404750  
     222A      1.405896   223A      1.420970   224A      1.435476  
     225A      1.442660   226A      1.447884   227A      1.462701  
     228A      1.472379   229A      1.482293   230A      1.494875  
     231A      1.499949   232A      1.507275   233A      1.526984  
     234A      1.546297   235A      1.555013   236A      1.564155  
     237A      1.575135   238A      1.582343   239A      1.598629  
     240A      1.607071   241A      1.615375   242A      1.617587  
     243A      1.636273   244A      1.640253   245A      1.649569  
     246A      1.664368   247A      1.671268   248A      1.674516  
     249A      1.683753   250A      1.693308   251A      1.697263  
     252A      1.705630   253A      1.712319   254A      1.719631  
     255A      1.730364   256A      1.739247   257A      1.747477  
     258A      1.761431   259A      1.767717   260A      1.780775  
     261A      1.788594   262A      1.789721   263A      1.803730  
     264A      1.812773   265A      1.821874   266A      1.827234  
     267A      1.841017   268A      1.848039   269A      1.859783  
     270A      1.869349   271A      1.879793   272A      1.894382  
     273A      1.899904   274A      1.906806   275A      1.926834  
     276A      1.943660   277A      1.950870   278A      1.958749  
     279A      1.970664   280A      1.979624   281A      1.995727  
     282A      2.000705   283A      2.011554   284A      2.022202  
     285A      2.030383   286A      2.044299   287A      2.051205  
     288A      2.068715   289A      2.092946   290A      2.116490  
     291A      2.127079   292A      2.132184   293A      2.137327  
     294A      2.150148   295A      2.164722   296A      2.184065  
     297A      2.200754   298A      2.216819   299A      2.223177  
     300A      2.233642   301A      2.261162   302A      2.264395  
     303A      2.270612   304A      2.298558   305A      2.305962  
     306A      2.315844   307A      2.335788   308A      2.350500  
     309A      2.367709   310A      2.373940   311A      2.391329  
     312A      2.403816   313A      2.427865   314A      2.444290  
     315A      2.459290   316A      2.487122   317A      2.505130  
     318A      2.524409   319A      2.610408   320A      2.624775  
     321A      2.651462   322A      2.683292   323A      2.698363  
     324A      2.721286   325A      2.738950   326A      2.743647  
     327A      2.800504   328A      2.820822   329A      2.847219  
     330A      2.864760   331A      2.887828   332A      2.893464  
     333A      2.922017   334A      2.927367   335A      2.932298  
     336A      2.973614   337A      3.017178   338A      3.045520  
     339A      3.057242   340A      3.085036   341A      3.099682  
     342A      3.121036   343A      3.143168   344A      3.179321  
     345A      3.217985   346A      3.242291   347A      3.253973  
     348A      3.260931   349A      3.278523   350A      3.315859  
     351A      3.368330   352A      3.400375   353A      3.437956  
     354A      3.459331   355A      3.475783   356A      3.480081  
     357A      3.513949   358A      3.546119   359A      3.570455  
     360A      3.583395   361A      3.595336   362A      3.615691  
     363A      3.631192   364A      3.644283   365A      3.665042  
     366A      3.673174   367A      3.687428   368A      3.695854  
     369A      3.709129   370A      3.716792   371A      3.746740  
     372A      3.758061   373A      3.769504   374A      3.788056  
     375A      3.794870   376A      3.807781   377A      3.818341  
     378A      3.826952   379A      3.846296   380A      3.849245  
     381A      3.878933   382A      3.901638   383A      3.908769  
     384A      3.930133   385A      3.936669   386A      3.949488  
     387A      3.964968   388A      3.975472   389A      3.989327  
     390A      4.000324   391A      4.023953   392A      4.028347  
     393A      4.061349   394A      4.063699   395A      4.072340  
     396A      4.076178   397A      4.100381   398A      4.114260  
     399A      4.139391   400A      4.140233   401A      4.150400  
     402A      4.156220   403A      4.179146   404A      4.192650  
     405A      4.197944   406A      4.221607   407A      4.227892  
     408A      4.241054   409A      4.258793   410A      4.280449  
     411A      4.307415   412A      4.312636   413A      4.321369  
     414A      4.344144   415A      4.363191   416A      4.378818  
     417A      4.395855   418A      4.432718   419A      4.438114  
     420A      4.461923   421A      4.482987   422A      4.493202  
     423A      4.518017   424A      4.541826   425A      4.552969  
     426A      4.558688   427A      4.575950   428A      4.595517  
     429A      4.603596   430A      4.627928   431A      4.646301  
     432A      4.658983   433A      4.679802   434A      4.703198  
     435A      4.718155   436A      4.720916   437A      4.770561  
     438A      4.784246   439A      4.791033   440A      4.803188  
     441A      4.823476   442A      4.836058   443A      4.850215  
     444A      4.876558   445A      4.887158   446A      4.895934  
     447A      4.918244   448A      4.928646   449A      4.941352  
     450A      4.956619   451A      4.962547   452A      4.985101  
     453A      5.003776   454A      5.025842   455A      5.034161  
     456A      5.045972   457A      5.052931   458A      5.066551  
     459A      5.087741   460A      5.116753   461A      5.133152  
     462A      5.148358   463A      5.156629   464A      5.176501  
     465A      5.203229   466A      5.224105   467A      5.243091  
     468A      5.261796   469A      5.274623   470A      5.305574  
     471A      5.332348   472A      5.349056   473A      5.363539  
     474A      5.374708   475A      5.394210   476A      5.403029  
     477A      5.439924   478A      5.453880   479A      5.469032  
     480A      5.484517   481A      5.506568   482A      5.539167  
     483A      5.548745   484A      5.578796   485A      5.582491  
     486A      5.602992   487A      5.623543   488A      5.635717  
     489A      5.666804   490A      5.683578   491A      5.715110  
     492A      5.735871   493A      5.774142   494A      5.788811  
     495A      5.800389   496A      5.831972   497A      5.879071  
     498A      5.898707   499A      5.993235   500A      6.016545  
     501A      6.064191   502A      6.089446   503A      6.105248  
     504A      6.150630   505A      6.177375   506A      6.197641  
     507A      6.229555   508A      6.245539   509A      6.264537  
     510A      6.297672   511A      6.311616   512A      6.364604  
     513A      6.401207   514A      6.437328   515A      6.700015  
     516A      6.740502   517A      6.755985   518A      6.793916  
     519A      6.797083   520A      6.861656   521A      6.874427  
     522A      6.895717   523A      7.019038   524A      7.023243  
     525A      7.051766   526A      7.106819   527A      7.208289  
     528A      7.240113   529A      7.381125   530A      7.390226  
     531A      7.452042   532A      7.491489   533A      7.498536  
     534A      7.543967   535A      7.615769   536A      7.657897  
     537A      7.679190   538A      7.720943   539A      7.866777  
     540A      7.929408   541A      7.981101   542A      8.096967  
     543A      8.271293   544A      8.308624   545A      8.639436  
     546A      8.699307   547A     16.729593   548A     16.975618  
     549A     17.780209   550A     17.861220   551A     18.551653  
     552A     18.740472  

    Final Occupation by Irrep:
              A 
    DOCC [    26 ]
    NA   [    26 ]
    NB   [    26 ]

  @DF-RHF Final Energy:  -308.29098133189109

   => Energetics <=

    Nuclear Repulsion Energy =            258.3012026751724761
    One-Electron Energy =                -932.3016986117324905
    Two-Electron Energy =                 365.7095146046689251
    Total Energy =                       -308.2909813318910892

Computation Completed


Properties will be evaluated at   0.000000,   0.000000,   0.000000 [a0]

Properties computed using the SCF density matrix


 Multipole Moments:

 ------------------------------------------------------------------------------------
     Multipole            Electronic (a.u.)      Nuclear  (a.u.)        Total (a.u.)
 ------------------------------------------------------------------------------------

 L = 1.  Multiply by 2.5417464519 to convert [e a0] to [Debye]
 Dipole X            :          0.7533968            0.0000038            0.7534006
 Dipole Y            :          1.0085860            0.0000019            1.0085879
 Dipole Z            :          0.4107433            0.0000057            0.4107490
 Magnitude           :                                                    1.3242268

 ------------------------------------------------------------------------------------

*** tstop() called on Moses-MBP.lan at Thu Feb 27 17:26:57 2025
Module time:
	user time   =      88.79 seconds =       1.48 minutes
	system time =       7.27 seconds =       0.12 minutes
	total time  =         12 seconds =       0.20 minutes
Total time:
	user time   =     272.73 seconds =       4.55 minutes
	system time =      24.08 seconds =       0.40 minutes
	total time  =         39 seconds =       0.65 minutes

*** tstart() called on Moses-MBP.lan
*** at Thu Feb 27 17:26:57 2025


  //>>>>>>>>>>>>>>>>>>>>>>>>>>>>>>>>>>>//
  //               DFMP2               //
  //<<<<<<<<<<<<<<<<<<<<<<<<<<<<<<<<<<<//

   => Loading Basis Set <=

    Name: (AUG-CC-PVTZ AUX)
    Role: RIFIT
    Keyword: DF_BASIS_MP2
    atoms 1-2, 10-11 entry C          line   148 file /Users/moseschung/miniconda3/envs/psi4/share/psi4/basis/aug-cc-pvtz-ri.gbs 
    atoms 3, 12      entry O          line   264 file /Users/moseschung/miniconda3/envs/psi4/share/psi4/basis/aug-cc-pvtz-ri.gbs 
    atoms 4-9, 13-18 entry H          line    30 file /Users/moseschung/miniconda3/envs/psi4/share/psi4/basis/aug-cc-pvtz-ri.gbs 

	 --------------------------------------------------------
	                          DF-MP2                         
	      2nd-Order Density-Fitted Moller-Plesset Theory     
	              RMP2 Wavefunction,  10 Threads             
	                                                         
	        Rob Parrish, Justin Turney, Andy Simmonett,      
	           Ed Hohenstein, and C. David Sherrill          
	 --------------------------------------------------------

   => Auxiliary Basis Set <=

  Basis Set: (AUG-CC-PVTZ AUX)
    Blend: AUG-CC-PVTZ-RI
    Number of shells: 336
    Number of basis functions: 1188
    Number of Cartesian functions: 1476
    Spherical Harmonics?: true
    Max angular momentum: 4

	 --------------------------------------------------------
	                 NBF =   552, NAUX =  1188
	 --------------------------------------------------------
	   CLASS    FOCC     OCC    AOCC    AVIR     VIR    FVIR
	   PAIRS       0      26      26     526     526       0
	 --------------------------------------------------------

	-----------------------------------------------------------
	 ==================> DF-MP2 Energies <==================== 
	-----------------------------------------------------------
	 Reference Energy          =    -308.2909813318910892 [Eh]
	 Singles Energy            =      -0.0000000000000000 [Eh]
	 Same-Spin Energy          =      -0.3001821076255625 [Eh]
	 Opposite-Spin Energy      =      -1.0407906878416138 [Eh]
	 Correlation Energy        =      -1.3409727954671764 [Eh]
	 Total Energy              =    -309.6319541273582558 [Eh]
	-----------------------------------------------------------
	 ================> DF-SCS-MP2 Energies <================== 
	-----------------------------------------------------------
	 SCS Same-Spin Scale       =       0.3333333333333333 [-]
	 SCS Opposite-Spin Scale   =       1.2000000000000000 [-]
	 SCS Same-Spin Energy      =      -0.1000607025418542 [Eh]
	 SCS Opposite-Spin Energy  =      -1.2489488254099366 [Eh]
	 SCS Correlation Energy    =      -1.3490095279517909 [Eh]
	 SCS Total Energy          =    -309.6399908598428965 [Eh]
	-----------------------------------------------------------


*** tstop() called on Moses-MBP.lan at Thu Feb 27 17:27:02 2025
Module time:
	user time   =      32.20 seconds =       0.54 minutes
	system time =       2.84 seconds =       0.05 minutes
	total time  =          5 seconds =       0.08 minutes
Total time:
	user time   =     304.93 seconds =       5.08 minutes
	system time =      26.92 seconds =       0.45 minutes
	total time  =         44 seconds =       0.73 minutes

    Psi4 stopped on: Thursday, 27 February 2025 05:27PM
    Psi4 wall time for execution: 0:00:16.69


  //>>>>>>>>>>>>>>>>>>>>>>>>>>>>>>>>>>>//
  //          ManyBody Results         //
  //<<<<<<<<<<<<<<<<<<<<<<<<<<<<<<<<<<<//


   ==> N-Body: Counterpoise Corrected (CP) energies <==

        n-Body     Total Energy            Interaction Energy                          N-body Contribution to Interaction Energy
                   [Eh]                    [Eh]                  [kcal/mol]            [Eh]                  [kcal/mol]
             1  N/A                         0.000000000000        0.000000000000        0.000000000000        0.000000000000
  FULL/RTN   2  N/A                        -0.008374356920       -5.254988304273       -0.008374356920       -5.254988304273


    Psi4 stopped on: Thursday, 27 February 2025 05:27PM
    Psi4 wall time for execution: 0:00:45.14

*** Psi4 exiting successfully. Buy a developer a beer!
