
    -----------------------------------------------------------------------
          Psi4: An Open-Source Ab Initio Electronic Structure Package
                               Psi4 1.9.1 release

                         Git: Rev {} zzzzzzz 


    D. G. A. Smith, L. A. Burns, A. C. Simmonett, R. M. Parrish,
    M. C. Schieber, R. Galvelis, P. Kraus, H. Kruse, R. Di Remigio,
    A. Alenaizan, A. M. James, S. Lehtola, J. P. Misiewicz, M. Scheurer,
    R. A. Shaw, J. B. Schriber, Y. Xie, Z. L. Glick, D. A. Sirianni,
    J. S. O'Brien, J. M. Waldrop, A. Kumar, E. G. Hohenstein,
    B. P. Pritchard, B. R. Brooks, H. F. Schaefer III, A. Yu. Sokolov,
    K. Patkowski, A. E. DePrince III, U. Bozkaya, R. A. King,
    F. A. Evangelista, J. M. Turney, T. D. Crawford, C. D. Sherrill,
    J. Chem. Phys. 152(18) 184108 (2020). https://doi.org/10.1063/5.0006002

                            Additional Code Authors
    E. T. Seidl, C. L. Janssen, E. F. Valeev, M. L. Leininger,
    J. F. Gonthier, R. M. Richard, H. R. McAlexander, M. Saitow, X. Wang,
    P. Verma, M. H. Lechner, A. Jiang, S. Behnle, A. G. Heide,
    M. F. Herbst, and D. L. Poole

             Previous Authors, Complete List of Code Contributors,
                       and Citations for Specific Modules
    https://github.com/psi4/psi4/blob/master/codemeta.json
    https://github.com/psi4/psi4/graphs/contributors
    http://psicode.org/psi4manual/master/introduction.html#citing-psifour

    -----------------------------------------------------------------------


    Psi4 started on: Thursday, 27 February 2025 05:33PM

    Process ID: 31137
    Host:       Moses-MBP.lan
    PSIDATADIR: /Users/moseschung/miniconda3/envs/psi4/share/psi4
    Memory:     500.0 MiB
    Threads:    10
    
  ==> Input File <==

--------------------------------------------------------------------------
MEMORY 10 GB

molecule dimer {
0 1
C   -1.561199  -1.033777   0.763288
C   -1.765305  -0.232995  -0.490294
O   -1.963881   1.117319  -0.115357
H   -2.119058   1.639605  -0.904518
H   -1.349225  -2.076807   0.524120
H   -2.445053  -0.989218   1.402398
H   -0.715180  -0.635929   1.328583
H   -2.633315  -0.613137  -1.047424
H   -0.882498  -0.336163  -1.135983
--
0 1
C    1.595624   1.227825   0.308453
C    2.036644  -0.212945   0.368473
O    1.607757  -0.960660  -0.749963
H    1.968123  -0.550018  -1.540121
H    1.934300   1.777102   1.189646
H    0.505964   1.305189   0.253840
H    2.019469   1.724696  -0.570169
H    1.602558  -0.710377   1.240361
H    3.128326  -0.276867   0.482310

units ang
no_reorient
no_com
symmetry c1
}

set {
basis        aug-cc-pVTZ
scf_type     df
}

energy("mp2", bsse_type="cp")
--------------------------------------------------------------------------

  Memory set to   9.313 GiB by Python driver.

Scratch directory: /tmp/

  //>>>>>>>>>>>>>>>>>>>>>>>>>>>>>>>>>>>>>//
  // ManyBody Setup: N-Body Levels [1, 2]//
  //<<<<<<<<<<<<<<<<<<<<<<<<<<<<<<<<<<<<<//

        Number of 1-body computations:     2
        Number of 2-body computations:     1

    -----------------------------------------------------------------------
          Psi4: An Open-Source Ab Initio Electronic Structure Package
                               Psi4 1.9.1 release

                         Git: Rev {} zzzzzzz 


    D. G. A. Smith, L. A. Burns, A. C. Simmonett, R. M. Parrish,
    M. C. Schieber, R. Galvelis, P. Kraus, H. Kruse, R. Di Remigio,
    A. Alenaizan, A. M. James, S. Lehtola, J. P. Misiewicz, M. Scheurer,
    R. A. Shaw, J. B. Schriber, Y. Xie, Z. L. Glick, D. A. Sirianni,
    J. S. O'Brien, J. M. Waldrop, A. Kumar, E. G. Hohenstein,
    B. P. Pritchard, B. R. Brooks, H. F. Schaefer III, A. Yu. Sokolov,
    K. Patkowski, A. E. DePrince III, U. Bozkaya, R. A. King,
    F. A. Evangelista, J. M. Turney, T. D. Crawford, C. D. Sherrill,
    J. Chem. Phys. 152(18) 184108 (2020). https://doi.org/10.1063/5.0006002

                            Additional Code Authors
    E. T. Seidl, C. L. Janssen, E. F. Valeev, M. L. Leininger,
    J. F. Gonthier, R. M. Richard, H. R. McAlexander, M. Saitow, X. Wang,
    P. Verma, M. H. Lechner, A. Jiang, S. Behnle, A. G. Heide,
    M. F. Herbst, and D. L. Poole

             Previous Authors, Complete List of Code Contributors,
                       and Citations for Specific Modules
    https://github.com/psi4/psi4/blob/master/codemeta.json
    https://github.com/psi4/psi4/graphs/contributors
    http://psicode.org/psi4manual/master/introduction.html#citing-psifour

    -----------------------------------------------------------------------


    Psi4 started on: Thursday, 27 February 2025 05:33PM

    Process ID: 31137
    Host:       Moses-MBP.lan
    PSIDATADIR: /Users/moseschung/miniconda3/envs/psi4/share/psi4
    Memory:     9.3 GiB
    Threads:    10
    
  ==> Input QCSchema <==

--------------------------------------------------------------------------
{'driver': 'energy',
 'extras': {'psiapi': True, 'wfn_qcvars_only': True},
 'id': None,
 'keywords': {'SCF_TYPE': 'DF', 'function_kwargs': {}},
 'model': {'basis': 'aug-cc-pvtz', 'method': 'mp2'},
 'molecule': {'atom_labels': ['', '', '', '', '', '', '', '', '', '', '', '', '', '', '', '', '', ''],
              'atomic_numbers': [6, 6, 8, 1, 1, 1, 1, 1, 1, 6, 6, 8, 1, 1, 1, 1, 1, 1],
              'extras': {},
              'fix_com': True,
              'fix_orientation': True,
              'fix_symmetry': 'c1',
              'fragment_charges': [0.0, 0.0],
              'fragment_multiplicities': [1, 1],
              'fragments': [[0, 1, 2, 3, 4, 5, 6, 7, 8], [9, 10, 11, 12, 13, 14, 15, 16, 17]],
              'geometry': [-2.950238537338636, -1.953555404797417, 1.4424052748484546, -3.335942977901331,
                           -0.4402967386010467, -0.9265213809552204, -3.711197232990245, 2.111426904770415,
                           -0.21799313665443867, -4.004439263960414, 3.098404403931282, -1.709291295546864,
                           -2.5496657316208378, -3.924596445433696, 0.9904432568749569, -4.620480532229039,
                           -1.8693510983731418, 2.6501481388898074, -1.3514943304049296, -1.2017316452362712,
                           2.510658004939138, -4.976244152059981, -1.1586610073848365, -1.97934449723154,
                           -1.6676795262642825, -0.6352560035122798, -2.1466967531759598, 3.0152923592075216,
                           2.320252979990258, 0.5828916925758434, 3.848699375056933, -0.40240772978561723,
                           0.6963130546258223, 3.0382204062877016, -1.815384299682317, -1.4172246742267292,
                           3.7192134512144372, -1.0393833840720637, -2.910406890066236, 3.655297244473077,
                           3.3582360770033572, 2.2481051262464034, 0.9561333893411444, 2.466449751960177,
                           0.47968807968621513, 3.816243328852195, 3.2592030896726145, -1.0774632552261645,
                           3.028395720161446, -1.3424179758243557, 2.343942586698997, 5.911679371148986,
                           -0.5232028031771324, 0.9114338075695652],
              'mass_numbers': [12, 12, 16, 1, 1, 1, 1, 1, 1, 12, 12, 16, 1, 1, 1, 1, 1, 1],
              'masses': [12.0, 12.0, 15.99491461957, 1.00782503223, 1.00782503223, 1.00782503223, 1.00782503223,
                         1.00782503223, 1.00782503223, 12.0, 12.0, 15.99491461957, 1.00782503223, 1.00782503223,
                         1.00782503223, 1.00782503223, 1.00782503223, 1.00782503223],
              'molecular_charge': 0.0,
              'molecular_multiplicity': 1,
              'name': 'dimer',
              'provenance': {'creator': 'QCElemental',
                             'routine': 'qcelemental.molparse.from_string',
                             'version': '0.29.0'},
              'real': [False, False, False, False, False, False, False, False, False, True, True, True, True, True,
                       True, True, True, True],
              'schema_name': 'qcschema_molecule',
              'schema_version': 2,
              'symbols': ['C', 'C', 'O', 'H', 'H', 'H', 'H', 'H', 'H', 'C', 'C', 'O', 'H', 'H', 'H', 'H', 'H', 'H'],
              'validated': True},
 'protocols': {'stdout': True},
 'provenance': {'creator': 'QCElemental', 'routine': 'qcelemental.models.results', 'version': '0.29.0'},
 'schema_name': 'qcschema_input',
 'schema_version': 1}
--------------------------------------------------------------------------

Scratch directory: /tmp/
   => Libint2 <=

    Primary   basis highest AM E, G, H:  6, 6, 3
    Auxiliary basis highest AM E, G, H:  7, 7, 4
    Onebody   basis highest AM E, G, H:  -, -, -
    Solid Harmonics ordering:            Gaussian

*** tstart() called on Moses-MBP.lan
*** at Thu Feb 27 17:33:14 2025

   => Loading Basis Set <=

    Name: AUG-CC-PVTZ
    Role: ORBITAL
    Keyword: BASIS
    atoms 1-2, 10-11 entry C          line   239 file /Users/moseschung/miniconda3/envs/psi4/share/psi4/basis/aug-cc-pvtz.gbs 
    atoms 3, 12      entry O          line   331 file /Users/moseschung/miniconda3/envs/psi4/share/psi4/basis/aug-cc-pvtz.gbs 
    atoms 4-9, 13-18 entry H          line    40 file /Users/moseschung/miniconda3/envs/psi4/share/psi4/basis/aug-cc-pvtz.gbs 


         ---------------------------------------------------------
                                   SCF
               by Justin Turney, Rob Parrish, Andy Simmonett
                          and Daniel G. A. Smith
                              RHF Reference
                       10 Threads,   9536 MiB Core
         ---------------------------------------------------------

  ==> Geometry <==

    Molecular point group: c1
    Full point group: C1

    Geometry (in Bohr), charge = 0, multiplicity = 1:

       Center              X                  Y                   Z               Mass       
    ------------   -----------------  -----------------  -----------------  -----------------
      Gh(C)          -2.950238537339    -1.953555404797     1.442405274848    12.000000000000
      Gh(C)          -3.335942977901    -0.440296738601    -0.926521380955    12.000000000000
      Gh(O)          -3.711197232990     2.111426904770    -0.217993136654    15.994914619570
      Gh(H)          -4.004439263960     3.098404403931    -1.709291295547     1.007825032230
      Gh(H)          -2.549665731621    -3.924596445434     0.990443256875     1.007825032230
      Gh(H)          -4.620480532229    -1.869351098373     2.650148138890     1.007825032230
      Gh(H)          -1.351494330405    -1.201731645236     2.510658004939     1.007825032230
      Gh(H)          -4.976244152060    -1.158661007385    -1.979344497232     1.007825032230
      Gh(H)          -1.667679526264    -0.635256003512    -2.146696753176     1.007825032230
         C            3.015292359208     2.320252979990     0.582891692576    12.000000000000
         C            3.848699375057    -0.402407729786     0.696313054626    12.000000000000
         O            3.038220406288    -1.815384299682    -1.417224674227    15.994914619570
         H            3.719213451214    -1.039383384072    -2.910406890066     1.007825032230
         H            3.655297244473     3.358236077003     2.248105126246     1.007825032230
         H            0.956133389341     2.466449751960     0.479688079686     1.007825032230
         H            3.816243328852     3.259203089673    -1.077463255226     1.007825032230
         H            3.028395720161    -1.342417975824     2.343942586699     1.007825032230
         H            5.911679371149    -0.523202803177     0.911433807570     1.007825032230

  Running in c1 symmetry.

  Rotational constants: A =      0.14128  B =      0.05100  C =      0.04438 [cm^-1]
  Rotational constants: A =   4235.36437  B =   1529.02660  C =   1330.36201 [MHz]
  Nuclear repulsion =   82.075867205153600

  Charge       = 0
  Multiplicity = 1
  Electrons    = 26
  Nalpha       = 13
  Nbeta        = 13

  ==> Algorithm <==

  SCF Algorithm Type is DF.
  DIIS enabled.
  MOM disabled.
  Fractional occupation disabled.
  Guess Type is SAD.
  Energy threshold   = 1.00e-08
  Density threshold  = 1.00e-08
  Integral threshold = 1.00e-12

  ==> Primary Basis <==

  Basis Set: AUG-CC-PVTZ
    Blend: AUG-CC-PVTZ
    Number of shells: 192
    Number of basis functions: 552
    Number of Cartesian functions: 630
    Spherical Harmonics?: true
    Max angular momentum: 3

   => Loading Basis Set <=

    Name: (AUG-CC-PVTZ AUX)
    Role: JKFIT
    Keyword: DF_BASIS_SCF
    atoms 1-2, 10-11 entry C          line   162 file /Users/moseschung/miniconda3/envs/psi4/share/psi4/basis/aug-cc-pvtz-jkfit.gbs 
    atoms 3, 12      entry O          line   286 file /Users/moseschung/miniconda3/envs/psi4/share/psi4/basis/aug-cc-pvtz-jkfit.gbs 
    atoms 4-9, 13-18 entry H          line    70 file /Users/moseschung/miniconda3/envs/psi4/share/psi4/basis/aug-cc-pvtz-jkfit.gbs 

  ==> Integral Setup <==

  DFHelper Memory: AOs need 2.651 GiB; user supplied 6.985 GiB. 
  Using in-core AOs.

  ==> MemDFJK: Density-Fitted J/K Matrices <==

    J tasked:                   Yes
    K tasked:                   Yes
    wK tasked:                   No
    OpenMP threads:              10
    Memory [MiB]:              7152
    Algorithm:                 Core
    Schwarz Cutoff:           1E-12
    Mask sparsity (%):       4.2389
    Fitting Condition:        1E-10

   => Auxiliary Basis Set <=

  Basis Set: (AUG-CC-PVTZ AUX)
    Blend: AUG-CC-PVTZ-JKFIT
    Number of shells: 348
    Number of basis functions: 1176
    Number of Cartesian functions: 1446
    Spherical Harmonics?: true
    Max angular momentum: 4

  Minimum eigenvalue in the overlap matrix is 5.7199202562E-06.
  Reciprocal condition number of the overlap matrix is 2.9541679415E-07.
    Using symmetric orthogonalization.

  ==> Pre-Iterations <==

  SCF Guess: Superposition of Atomic Densities via on-the-fly atomic UHF (no occupation information).

   -------------------------
    Irrep   Nso     Nmo    
   -------------------------
     A        552     552 
   -------------------------
    Total     552     552
   -------------------------

  ==> Iterations <==

                           Total Energy        Delta E     RMS |[F,P]|

   @DF-RHF iter SAD:  -153.45036026918095   -1.53450e+02   0.00000e+00 
   @DF-RHF iter   1:  -154.00360601907963   -5.53246e-01   9.37216e-04 DIIS/ADIIS
   @DF-RHF iter   2:  -154.11533064294198   -1.11725e-01   4.95926e-04 DIIS/ADIIS
   @DF-RHF iter   3:  -154.14333887473811   -2.80082e-02   8.38596e-05 DIIS
   @DF-RHF iter   4:  -154.14491673124903   -1.57786e-03   3.21239e-05 DIIS
   @DF-RHF iter   5:  -154.14510312212667   -1.86391e-04   6.21247e-06 DIIS
   @DF-RHF iter   6:  -154.14511339393533   -1.02718e-05   1.41826e-06 DIIS
   @DF-RHF iter   7:  -154.14511411998228   -7.26047e-07   4.03196e-07 DIIS
   @DF-RHF iter   8:  -154.14511417400297   -5.40207e-08   1.27416e-07 DIIS
   @DF-RHF iter   9:  -154.14511418007717   -6.07420e-09   3.27870e-08 DIIS
   @DF-RHF iter  10:  -154.14511418050782   -4.30646e-10   6.31317e-09 DIIS
  Energy and wave function converged.


  ==> Post-Iterations <==

    Orbital Energies [Eh]
    ---------------------

    Doubly Occupied:                                                      

       1A    -20.555386     2A    -11.273690     3A    -11.218737  
       4A     -1.361383     5A     -1.014362     6A     -0.848048  
       7A     -0.687420     8A     -0.625400     9A     -0.610399  
      10A     -0.545505    11A     -0.525582    12A     -0.480515  
      13A     -0.443480  

    Virtual:                                                              

      14A      0.024000    15A      0.032685    16A      0.035264  
      17A      0.038847    18A      0.050363    19A      0.055036  
      20A      0.055699    21A      0.059999    22A      0.066736  
      23A      0.079119    24A      0.082056    25A      0.086132  
      26A      0.099207    27A      0.111424    28A      0.113577  
      29A      0.114424    30A      0.120123    31A      0.125514  
      32A      0.132556    33A      0.141292    34A      0.146797  
      35A      0.150039    36A      0.155390    37A      0.161288  
      38A      0.164092    39A      0.167488    40A      0.179722  
      41A      0.185534    42A      0.190119    43A      0.197416  
      44A      0.201531    45A      0.220467    46A      0.225028  
      47A      0.233810    48A      0.250190    49A      0.251464  
      50A      0.263516    51A      0.270074    52A      0.276684  
      53A      0.289064    54A      0.291240    55A      0.300499  
      56A      0.306138    57A      0.309152    58A      0.314015  
      59A      0.317295    60A      0.330743    61A      0.334548  
      62A      0.339433    63A      0.346931    64A      0.348306  
      65A      0.349592    66A      0.354833    67A      0.360842  
      68A      0.362430    69A      0.366580    70A      0.371365  
      71A      0.375877    72A      0.384629    73A      0.392635  
      74A      0.399489    75A      0.401568    76A      0.411907  
      77A      0.421102    78A      0.429988    79A      0.432128  
      80A      0.437059    81A      0.442057    82A      0.444541  
      83A      0.451942    84A      0.460159    85A      0.466661  
      86A      0.472761    87A      0.476198    88A      0.483807  
      89A      0.489629    90A      0.495313    91A      0.497114  
      92A      0.506126    93A      0.512964    94A      0.517379  
      95A      0.522210    96A      0.523260    97A      0.534061  
      98A      0.544107    99A      0.547850   100A      0.552017  
     101A      0.554772   102A      0.566989   103A      0.574592  
     104A      0.584378   105A      0.597020   106A      0.603477  
     107A      0.611431   108A      0.614636   109A      0.623650  
     110A      0.630079   111A      0.637937   112A      0.639814  
     113A      0.649870   114A      0.655506   115A      0.662227  
     116A      0.666054   117A      0.670653   118A      0.684558  
     119A      0.687514   120A      0.699400   121A      0.708417  
     122A      0.718219   123A      0.732020   124A      0.739696  
     125A      0.749664   126A      0.768973   127A      0.788925  
     128A      0.802196   129A      0.808063   130A      0.822477  
     131A      0.832425   132A      0.837121   133A      0.841604  
     134A      0.845422   135A      0.858698   136A      0.872522  
     137A      0.880419   138A      0.884392   139A      0.899410  
     140A      0.906277   141A      0.915057   142A      0.922176  
     143A      0.928578   144A      0.942179   145A      0.943198  
     146A      0.952336   147A      0.963622   148A      0.972980  
     149A      0.981427   150A      0.983365   151A      0.988755  
     152A      1.003363   153A      1.012086   154A      1.019511  
     155A      1.027345   156A      1.029825   157A      1.041545  
     158A      1.048230   159A      1.052613   160A      1.060591  
     161A      1.068810   162A      1.072398   163A      1.083056  
     164A      1.090657   165A      1.096549   166A      1.101039  
     167A      1.110200   168A      1.120262   169A      1.128181  
     170A      1.129225   171A      1.133012   172A      1.141487  
     173A      1.145055   174A      1.149760   175A      1.165705  
     176A      1.170282   177A      1.176887   178A      1.188509  
     179A      1.191259   180A      1.196906   181A      1.201978  
     182A      1.217779   183A      1.226944   184A      1.240750  
     185A      1.243464   186A      1.250497   187A      1.254231  
     188A      1.259533   189A      1.266969   190A      1.269770  
     191A      1.281349   192A      1.284417   193A      1.297020  
     194A      1.302924   195A      1.310432   196A      1.314263  
     197A      1.330187   198A      1.336722   199A      1.341311  
     200A      1.348015   201A      1.356686   202A      1.372227  
     203A      1.375281   204A      1.389043   205A      1.394272  
     206A      1.401406   207A      1.406890   208A      1.422928  
     209A      1.426295   210A      1.436702   211A      1.442835  
     212A      1.463960   213A      1.478507   214A      1.485526  
     215A      1.488432   216A      1.499995   217A      1.503602  
     218A      1.511875   219A      1.518966   220A      1.531110  
     221A      1.549906   222A      1.556360   223A      1.568175  
     224A      1.572525   225A      1.580911   226A      1.593277  
     227A      1.602816   228A      1.614591   229A      1.621367  
     230A      1.629152   231A      1.641427   232A      1.655979  
     233A      1.660325   234A      1.690062   235A      1.690499  
     236A      1.704399   237A      1.712038   238A      1.721941  
     239A      1.729073   240A      1.731732   241A      1.742022  
     242A      1.765045   243A      1.772265   244A      1.784155  
     245A      1.792695   246A      1.801758   247A      1.813690  
     248A      1.827394   249A      1.835243   250A      1.844050  
     251A      1.858799   252A      1.874000   253A      1.881631  
     254A      1.902958   255A      1.910886   256A      1.917679  
     257A      1.921354   258A      1.934989   259A      1.947874  
     260A      1.953752   261A      1.967866   262A      1.987050  
     263A      1.996732   264A      2.005517   265A      2.025035  
     266A      2.047801   267A      2.051203   268A      2.067606  
     269A      2.072685   270A      2.077983   271A      2.095503  
     272A      2.104855   273A      2.123068   274A      2.133193  
     275A      2.140123   276A      2.154095   277A      2.173784  
     278A      2.185367   279A      2.191318   280A      2.207544  
     281A      2.220555   282A      2.225120   283A      2.239129  
     284A      2.255554   285A      2.261553   286A      2.270587  
     287A      2.286660   288A      2.301545   289A      2.318510  
     290A      2.342286   291A      2.350272   292A      2.352937  
     293A      2.380797   294A      2.390458   295A      2.413805  
     296A      2.444966   297A      2.448427   298A      2.462060  
     299A      2.489114   300A      2.496333   301A      2.502567  
     302A      2.541802   303A      2.576080   304A      2.595990  
     305A      2.622164   306A      2.638993   307A      2.654720  
     308A      2.685916   309A      2.692887   310A      2.715228  
     311A      2.729663   312A      2.739264   313A      2.746447  
     314A      2.782080   315A      2.783868   316A      2.810405  
     317A      2.839720   318A      2.860224   319A      2.866966  
     320A      2.888644   321A      2.901255   322A      2.930729  
     323A      2.959672   324A      2.976353   325A      3.002836  
     326A      3.036648   327A      3.048192   328A      3.066673  
     329A      3.091509   330A      3.095080   331A      3.135423  
     332A      3.148995   333A      3.195941   334A      3.203569  
     335A      3.225514   336A      3.303798   337A      3.320264  
     338A      3.344495   339A      3.368843   340A      3.383290  
     341A      3.447721   342A      3.469727   343A      3.507302  
     344A      3.524439   345A      3.534142   346A      3.550744  
     347A      3.604229   348A      3.611776   349A      3.633563  
     350A      3.688819   351A      3.696636   352A      3.708829  
     353A      3.724893   354A      3.735374   355A      3.762339  
     356A      3.785299   357A      3.814310   358A      3.824807  
     359A      3.839595   360A      3.846889   361A      3.867461  
     362A      3.880028   363A      3.920295   364A      3.959468  
     365A      3.979527   366A      3.984029   367A      4.013837  
     368A      4.033154   369A      4.055634   370A      4.092268  
     371A      4.099007   372A      4.132522   373A      4.141277  
     374A      4.156516   375A      4.170192   376A      4.197824  
     377A      4.200327   378A      4.217979   379A      4.227370  
     380A      4.238542   381A      4.255284   382A      4.268071  
     383A      4.276473   384A      4.286520   385A      4.327867  
     386A      4.330338   387A      4.334005   388A      4.372136  
     389A      4.382155   390A      4.395425   391A      4.407229  
     392A      4.436829   393A      4.462909   394A      4.497358  
     395A      4.500365   396A      4.507657   397A      4.540080  
     398A      4.550504   399A      4.562468   400A      4.579907  
     401A      4.587610   402A      4.605991   403A      4.624984  
     404A      4.632117   405A      4.658364   406A      4.686635  
     407A      4.695183   408A      4.719301   409A      4.724285  
     410A      4.730939   411A      4.742682   412A      4.755747  
     413A      4.772284   414A      4.787558   415A      4.812154  
     416A      4.841214   417A      4.872367   418A      4.893321  
     419A      4.898081   420A      4.901049   421A      4.902190  
     422A      4.926691   423A      4.944599   424A      4.948442  
     425A      4.962756   426A      4.978780   427A      4.986946  
     428A      4.994313   429A      5.021174   430A      5.030333  
     431A      5.055095   432A      5.065413   433A      5.076639  
     434A      5.099666   435A      5.113437   436A      5.127346  
     437A      5.132950   438A      5.169447   439A      5.179304  
     440A      5.218088   441A      5.231948   442A      5.239393  
     443A      5.257514   444A      5.270262   445A      5.299996  
     446A      5.303026   447A      5.350646   448A      5.363384  
     449A      5.389914   450A      5.410436   451A      5.430622  
     452A      5.435133   453A      5.464917   454A      5.468593  
     455A      5.506688   456A      5.518685   457A      5.534578  
     458A      5.558500   459A      5.567302   460A      5.581786  
     461A      5.609055   462A      5.619632   463A      5.628618  
     464A      5.651325   465A      5.664170   466A      5.680396  
     467A      5.694590   468A      5.728769   469A      5.732606  
     470A      5.749767   471A      5.777031   472A      5.799283  
     473A      5.828900   474A      5.865618   475A      5.891318  
     476A      5.923447   477A      5.956237   478A      6.007135  
     479A      6.039205   480A      6.047214   481A      6.072812  
     482A      6.101927   483A      6.153069   484A      6.162381  
     485A      6.206554   486A      6.228653   487A      6.240714  
     488A      6.261533   489A      6.302819   490A      6.321410  
     491A      6.331934   492A      6.342231   493A      6.436984  
     494A      6.485378   495A      6.575189   496A      6.718424  
     497A      6.798452   498A      6.831285   499A      6.852813  
     500A      6.892421   501A      6.920340   502A      6.929764  
     503A      7.010363   504A      7.018912   505A      7.061099  
     506A      7.143301   507A      7.170986   508A      7.215860  
     509A      7.231980   510A      7.334617   511A      7.377847  
     512A      7.417290   513A      7.531778   514A      7.555049  
     515A      7.665728   516A      7.815899   517A      7.847862  
     518A      7.861256   519A      7.892265   520A      7.900120  
     521A      7.913980   522A      7.929596   523A      7.945994  
     524A      8.030672   525A      8.178678   526A      8.197669  
     527A      8.238108   528A      8.275696   529A      8.345342  
     530A      8.393315   531A      8.453650   532A      8.606747  
     533A      8.647283   534A      8.908421   535A      9.080019  
     536A     10.005795   537A     10.135763   538A     10.384863  
     539A     10.424589   540A     10.454105   541A     10.819730  
     542A     11.092580   543A     12.053505   544A     12.419790  
     545A     13.302151   546A     14.148117   547A     16.577372  
     548A     17.921912   549A     18.932979   550A     53.407115  
     551A     54.572378   552A     66.670758  

    Final Occupation by Irrep:
              A 
    DOCC [    13 ]
    NA   [    13 ]
    NB   [    13 ]

  @DF-RHF Final Energy:  -154.14511418050782

   => Energetics <=

    Nuclear Repulsion Energy =             82.0758672051535996
    One-Electron Energy =                -372.0621413940094726
    Two-Electron Energy =                 135.8411600083480550
    Total Energy =                       -154.1451141805078180

Computation Completed


Properties will be evaluated at   0.000000,   0.000000,   0.000000 [a0]

Properties computed using the SCF density matrix


 Multipole Moments:

 ------------------------------------------------------------------------------------
     Multipole            Electronic (a.u.)      Nuclear  (a.u.)        Total (a.u.)
 ------------------------------------------------------------------------------------

 L = 1.  Multiply by 2.5417464519 to convert [e a0] to [Debye]
 Dipole X            :        -86.1976020           86.5766762            0.3790741
 Dipole Y            :         -2.5573576            3.1628819            0.6055242
 Dipole Z            :          1.6862624           -1.6672695            0.0189930
 Magnitude           :                                                    0.7146450

 ------------------------------------------------------------------------------------

*** tstop() called on Moses-MBP.lan at Thu Feb 27 17:33:24 2025
Module time:
	user time   =      72.36 seconds =       1.21 minutes
	system time =       6.69 seconds =       0.11 minutes
	total time  =         10 seconds =       0.17 minutes
Total time:
	user time   =      72.36 seconds =       1.21 minutes
	system time =       6.69 seconds =       0.11 minutes
	total time  =         10 seconds =       0.17 minutes

*** tstart() called on Moses-MBP.lan
*** at Thu Feb 27 17:33:24 2025


  //>>>>>>>>>>>>>>>>>>>>>>>>>>>>>>>>>>>//
  //               DFMP2               //
  //<<<<<<<<<<<<<<<<<<<<<<<<<<<<<<<<<<<//

   => Loading Basis Set <=

    Name: (AUG-CC-PVTZ AUX)
    Role: RIFIT
    Keyword: DF_BASIS_MP2
    atoms 1-2, 10-11 entry C          line   148 file /Users/moseschung/miniconda3/envs/psi4/share/psi4/basis/aug-cc-pvtz-ri.gbs 
    atoms 3, 12      entry O          line   264 file /Users/moseschung/miniconda3/envs/psi4/share/psi4/basis/aug-cc-pvtz-ri.gbs 
    atoms 4-9, 13-18 entry H          line    30 file /Users/moseschung/miniconda3/envs/psi4/share/psi4/basis/aug-cc-pvtz-ri.gbs 

	 --------------------------------------------------------
	                          DF-MP2                         
	      2nd-Order Density-Fitted Moller-Plesset Theory     
	              RMP2 Wavefunction,  10 Threads             
	                                                         
	        Rob Parrish, Justin Turney, Andy Simmonett,      
	           Ed Hohenstein, and C. David Sherrill          
	 --------------------------------------------------------

   => Auxiliary Basis Set <=

  Basis Set: (AUG-CC-PVTZ AUX)
    Blend: AUG-CC-PVTZ-RI
    Number of shells: 336
    Number of basis functions: 1188
    Number of Cartesian functions: 1476
    Spherical Harmonics?: true
    Max angular momentum: 4

	 --------------------------------------------------------
	                 NBF =   552, NAUX =  1188
	 --------------------------------------------------------
	   CLASS    FOCC     OCC    AOCC    AVIR     VIR    FVIR
	   PAIRS       0      13      13     539     539       0
	 --------------------------------------------------------

	-----------------------------------------------------------
	 ==================> DF-MP2 Energies <==================== 
	-----------------------------------------------------------
	 Reference Energy          =    -154.1451141805078180 [Eh]
	 Singles Energy            =      -0.0000000000000000 [Eh]
	 Same-Spin Energy          =      -0.1482218670215164 [Eh]
	 Opposite-Spin Energy      =      -0.5187700926771954 [Eh]
	 Correlation Energy        =      -0.6669919596987118 [Eh]
	 Total Energy              =    -154.8121061402065379 [Eh]
	-----------------------------------------------------------
	 ================> DF-SCS-MP2 Energies <================== 
	-----------------------------------------------------------
	 SCS Same-Spin Scale       =       0.3333333333333333 [-]
	 SCS Opposite-Spin Scale   =       1.2000000000000000 [-]
	 SCS Same-Spin Energy      =      -0.0494072890071721 [Eh]
	 SCS Opposite-Spin Energy  =      -0.6225241112126345 [Eh]
	 SCS Correlation Energy    =      -0.6719314002198067 [Eh]
	 SCS Total Energy          =    -154.8170455807276369 [Eh]
	-----------------------------------------------------------


*** tstop() called on Moses-MBP.lan at Thu Feb 27 17:33:27 2025
Module time:
	user time   =      20.18 seconds =       0.34 minutes
	system time =       1.85 seconds =       0.03 minutes
	total time  =          3 seconds =       0.05 minutes
Total time:
	user time   =      92.55 seconds =       1.54 minutes
	system time =       8.54 seconds =       0.14 minutes
	total time  =         13 seconds =       0.22 minutes

    Psi4 stopped on: Thursday, 27 February 2025 05:33PM
    Psi4 wall time for execution: 0:00:13.16


    -----------------------------------------------------------------------
          Psi4: An Open-Source Ab Initio Electronic Structure Package
                               Psi4 1.9.1 release

                         Git: Rev {} zzzzzzz 


    D. G. A. Smith, L. A. Burns, A. C. Simmonett, R. M. Parrish,
    M. C. Schieber, R. Galvelis, P. Kraus, H. Kruse, R. Di Remigio,
    A. Alenaizan, A. M. James, S. Lehtola, J. P. Misiewicz, M. Scheurer,
    R. A. Shaw, J. B. Schriber, Y. Xie, Z. L. Glick, D. A. Sirianni,
    J. S. O'Brien, J. M. Waldrop, A. Kumar, E. G. Hohenstein,
    B. P. Pritchard, B. R. Brooks, H. F. Schaefer III, A. Yu. Sokolov,
    K. Patkowski, A. E. DePrince III, U. Bozkaya, R. A. King,
    F. A. Evangelista, J. M. Turney, T. D. Crawford, C. D. Sherrill,
    J. Chem. Phys. 152(18) 184108 (2020). https://doi.org/10.1063/5.0006002

                            Additional Code Authors
    E. T. Seidl, C. L. Janssen, E. F. Valeev, M. L. Leininger,
    J. F. Gonthier, R. M. Richard, H. R. McAlexander, M. Saitow, X. Wang,
    P. Verma, M. H. Lechner, A. Jiang, S. Behnle, A. G. Heide,
    M. F. Herbst, and D. L. Poole

             Previous Authors, Complete List of Code Contributors,
                       and Citations for Specific Modules
    https://github.com/psi4/psi4/blob/master/codemeta.json
    https://github.com/psi4/psi4/graphs/contributors
    http://psicode.org/psi4manual/master/introduction.html#citing-psifour

    -----------------------------------------------------------------------


    Psi4 started on: Thursday, 27 February 2025 05:33PM

    Process ID: 31137
    Host:       Moses-MBP.lan
    PSIDATADIR: /Users/moseschung/miniconda3/envs/psi4/share/psi4
    Memory:     9.3 GiB
    Threads:    10
    
  ==> Input QCSchema <==

--------------------------------------------------------------------------
{'driver': 'energy',
 'extras': {'psiapi': True, 'wfn_qcvars_only': True},
 'id': None,
 'keywords': {'SCF_TYPE': 'DF', 'function_kwargs': {}},
 'model': {'basis': 'aug-cc-pvtz', 'method': 'mp2'},
 'molecule': {'atom_labels': ['', '', '', '', '', '', '', '', '', '', '', '', '', '', '', '', '', ''],
              'atomic_numbers': [6, 6, 8, 1, 1, 1, 1, 1, 1, 6, 6, 8, 1, 1, 1, 1, 1, 1],
              'extras': {},
              'fix_com': True,
              'fix_orientation': True,
              'fix_symmetry': 'c1',
              'fragment_charges': [0.0, 0.0],
              'fragment_multiplicities': [1, 1],
              'fragments': [[0, 1, 2, 3, 4, 5, 6, 7, 8], [9, 10, 11, 12, 13, 14, 15, 16, 17]],
              'geometry': [-2.950238537338636, -1.953555404797417, 1.4424052748484546, -3.335942977901331,
                           -0.4402967386010467, -0.9265213809552204, -3.711197232990245, 2.111426904770415,
                           -0.21799313665443867, -4.004439263960414, 3.098404403931282, -1.709291295546864,
                           -2.5496657316208378, -3.924596445433696, 0.9904432568749569, -4.620480532229039,
                           -1.8693510983731418, 2.6501481388898074, -1.3514943304049296, -1.2017316452362712,
                           2.510658004939138, -4.976244152059981, -1.1586610073848365, -1.97934449723154,
                           -1.6676795262642825, -0.6352560035122798, -2.1466967531759598, 3.0152923592075216,
                           2.320252979990258, 0.5828916925758434, 3.848699375056933, -0.40240772978561723,
                           0.6963130546258223, 3.0382204062877016, -1.815384299682317, -1.4172246742267292,
                           3.7192134512144372, -1.0393833840720637, -2.910406890066236, 3.655297244473077,
                           3.3582360770033572, 2.2481051262464034, 0.9561333893411444, 2.466449751960177,
                           0.47968807968621513, 3.816243328852195, 3.2592030896726145, -1.0774632552261645,
                           3.028395720161446, -1.3424179758243557, 2.343942586698997, 5.911679371148986,
                           -0.5232028031771324, 0.9114338075695652],
              'mass_numbers': [12, 12, 16, 1, 1, 1, 1, 1, 1, 12, 12, 16, 1, 1, 1, 1, 1, 1],
              'masses': [12.0, 12.0, 15.99491461957, 1.00782503223, 1.00782503223, 1.00782503223, 1.00782503223,
                         1.00782503223, 1.00782503223, 12.0, 12.0, 15.99491461957, 1.00782503223, 1.00782503223,
                         1.00782503223, 1.00782503223, 1.00782503223, 1.00782503223],
              'molecular_charge': 0.0,
              'molecular_multiplicity': 1,
              'name': 'dimer',
              'provenance': {'creator': 'QCElemental',
                             'routine': 'qcelemental.molparse.from_string',
                             'version': '0.29.0'},
              'real': [True, True, True, True, True, True, True, True, True, False, False, False, False, False, False,
                       False, False, False],
              'schema_name': 'qcschema_molecule',
              'schema_version': 2,
              'symbols': ['C', 'C', 'O', 'H', 'H', 'H', 'H', 'H', 'H', 'C', 'C', 'O', 'H', 'H', 'H', 'H', 'H', 'H'],
              'validated': True},
 'protocols': {'stdout': True},
 'provenance': {'creator': 'QCElemental', 'routine': 'qcelemental.models.results', 'version': '0.29.0'},
 'schema_name': 'qcschema_input',
 'schema_version': 1}
--------------------------------------------------------------------------

Scratch directory: /tmp/
   => Libint2 <=

    Primary   basis highest AM E, G, H:  6, 6, 3
    Auxiliary basis highest AM E, G, H:  7, 7, 4
    Onebody   basis highest AM E, G, H:  -, -, -
    Solid Harmonics ordering:            Gaussian

*** tstart() called on Moses-MBP.lan
*** at Thu Feb 27 17:33:27 2025

   => Loading Basis Set <=

    Name: AUG-CC-PVTZ
    Role: ORBITAL
    Keyword: BASIS
    atoms 1-2, 10-11 entry C          line   239 file /Users/moseschung/miniconda3/envs/psi4/share/psi4/basis/aug-cc-pvtz.gbs 
    atoms 3, 12      entry O          line   331 file /Users/moseschung/miniconda3/envs/psi4/share/psi4/basis/aug-cc-pvtz.gbs 
    atoms 4-9, 13-18 entry H          line    40 file /Users/moseschung/miniconda3/envs/psi4/share/psi4/basis/aug-cc-pvtz.gbs 


         ---------------------------------------------------------
                                   SCF
               by Justin Turney, Rob Parrish, Andy Simmonett
                          and Daniel G. A. Smith
                              RHF Reference
                       10 Threads,   9536 MiB Core
         ---------------------------------------------------------

  ==> Geometry <==

    Molecular point group: c1
    Full point group: C1

    Geometry (in Bohr), charge = 0, multiplicity = 1:

       Center              X                  Y                   Z               Mass       
    ------------   -----------------  -----------------  -----------------  -----------------
         C           -2.950238537339    -1.953555404797     1.442405274848    12.000000000000
         C           -3.335942977901    -0.440296738601    -0.926521380955    12.000000000000
         O           -3.711197232990     2.111426904770    -0.217993136654    15.994914619570
         H           -4.004439263960     3.098404403931    -1.709291295547     1.007825032230
         H           -2.549665731621    -3.924596445434     0.990443256875     1.007825032230
         H           -4.620480532229    -1.869351098373     2.650148138890     1.007825032230
         H           -1.351494330405    -1.201731645236     2.510658004939     1.007825032230
         H           -4.976244152060    -1.158661007385    -1.979344497232     1.007825032230
         H           -1.667679526264    -0.635256003512    -2.146696753176     1.007825032230
      Gh(C)           3.015292359208     2.320252979990     0.582891692576    12.000000000000
      Gh(C)           3.848699375057    -0.402407729786     0.696313054626    12.000000000000
      Gh(O)           3.038220406288    -1.815384299682    -1.417224674227    15.994914619570
      Gh(H)           3.719213451214    -1.039383384072    -2.910406890066     1.007825032230
      Gh(H)           3.655297244473     3.358236077003     2.248105126246     1.007825032230
      Gh(H)           0.956133389341     2.466449751960     0.479688079686     1.007825032230
      Gh(H)           3.816243328852     3.259203089673    -1.077463255226     1.007825032230
      Gh(H)           3.028395720161    -1.342417975824     2.343942586699     1.007825032230
      Gh(H)           5.911679371149    -0.523202803177     0.911433807570     1.007825032230

  Running in c1 symmetry.

  Rotational constants: A =      0.14128  B =      0.05100  C =      0.04438 [cm^-1]
  Rotational constants: A =   4235.36437  B =   1529.02660  C =   1330.36201 [MHz]
  Nuclear repulsion =   82.223537502687066

  Charge       = 0
  Multiplicity = 1
  Electrons    = 26
  Nalpha       = 13
  Nbeta        = 13

  ==> Algorithm <==

  SCF Algorithm Type is DF.
  DIIS enabled.
  MOM disabled.
  Fractional occupation disabled.
  Guess Type is SAD.
  Energy threshold   = 1.00e-08
  Density threshold  = 1.00e-08
  Integral threshold = 1.00e-12

  ==> Primary Basis <==

  Basis Set: AUG-CC-PVTZ
    Blend: AUG-CC-PVTZ
    Number of shells: 192
    Number of basis functions: 552
    Number of Cartesian functions: 630
    Spherical Harmonics?: true
    Max angular momentum: 3

   => Loading Basis Set <=

    Name: (AUG-CC-PVTZ AUX)
    Role: JKFIT
    Keyword: DF_BASIS_SCF
    atoms 1-2, 10-11 entry C          line   162 file /Users/moseschung/miniconda3/envs/psi4/share/psi4/basis/aug-cc-pvtz-jkfit.gbs 
    atoms 3, 12      entry O          line   286 file /Users/moseschung/miniconda3/envs/psi4/share/psi4/basis/aug-cc-pvtz-jkfit.gbs 
    atoms 4-9, 13-18 entry H          line    70 file /Users/moseschung/miniconda3/envs/psi4/share/psi4/basis/aug-cc-pvtz-jkfit.gbs 

  ==> Integral Setup <==

  DFHelper Memory: AOs need 2.651 GiB; user supplied 6.985 GiB. 
  Using in-core AOs.

  ==> MemDFJK: Density-Fitted J/K Matrices <==

    J tasked:                   Yes
    K tasked:                   Yes
    wK tasked:                   No
    OpenMP threads:              10
    Memory [MiB]:              7152
    Algorithm:                 Core
    Schwarz Cutoff:           1E-12
    Mask sparsity (%):       4.2389
    Fitting Condition:        1E-10

   => Auxiliary Basis Set <=

  Basis Set: (AUG-CC-PVTZ AUX)
    Blend: AUG-CC-PVTZ-JKFIT
    Number of shells: 348
    Number of basis functions: 1176
    Number of Cartesian functions: 1446
    Spherical Harmonics?: true
    Max angular momentum: 4

  Minimum eigenvalue in the overlap matrix is 5.7199202562E-06.
  Reciprocal condition number of the overlap matrix is 2.9541679415E-07.
    Using symmetric orthogonalization.

  ==> Pre-Iterations <==

  SCF Guess: Superposition of Atomic Densities via on-the-fly atomic UHF (no occupation information).

   -------------------------
    Irrep   Nso     Nmo    
   -------------------------
     A        552     552 
   -------------------------
    Total     552     552
   -------------------------

  ==> Iterations <==

                           Total Energy        Delta E     RMS |[F,P]|

   @DF-RHF iter SAD:  -153.44635017371766   -1.53446e+02   0.00000e+00 
   @DF-RHF iter   1:  -153.99867943975573   -5.52329e-01   9.60720e-04 DIIS/ADIIS
   @DF-RHF iter   2:  -154.11080907378718   -1.12130e-01   5.34726e-04 DIIS/ADIIS
   @DF-RHF iter   3:  -154.14377415923428   -3.29651e-02   8.45661e-05 DIIS
   @DF-RHF iter   4:  -154.14537029114840   -1.59613e-03   3.24857e-05 DIIS
   @DF-RHF iter   5:  -154.14555560909460   -1.85318e-04   5.76048e-06 DIIS
   @DF-RHF iter   6:  -154.14556519755860   -9.58846e-06   1.27370e-06 DIIS
   @DF-RHF iter   7:  -154.14556575124820   -5.53690e-07   3.90058e-07 DIIS
   @DF-RHF iter   8:  -154.14556579466438   -4.34162e-08   1.04993e-07 DIIS
   @DF-RHF iter   9:  -154.14556579883143   -4.16705e-09   2.53265e-08 DIIS
   @DF-RHF iter  10:  -154.14556579909464   -2.63213e-10   4.82205e-09 DIIS
  Energy and wave function converged.


  ==> Post-Iterations <==

    Orbital Energies [Eh]
    ---------------------

    Doubly Occupied:                                                      

       1A    -20.555706     2A    -11.273783     3A    -11.210705  
       4A     -1.360522     5A     -1.014677     6A     -0.832771  
       7A     -0.702296     8A     -0.646205     9A     -0.573406  
      10A     -0.533227    11A     -0.524061    12A     -0.489066  
      13A     -0.441062  

    Virtual:                                                              

      14A      0.022584    15A      0.032497    16A      0.035871  
      17A      0.038976    18A      0.051287    19A      0.053994  
      20A      0.055341    21A      0.059212    22A      0.068050  
      23A      0.078562    24A      0.081577    25A      0.090495  
      26A      0.097935    27A      0.105109    28A      0.110757  
      29A      0.118346    30A      0.119362    31A      0.125999  
      32A      0.129846    33A      0.139799    34A      0.145310  
      35A      0.152554    36A      0.156312    37A      0.163015  
      38A      0.166868    39A      0.169331    40A      0.177146  
      41A      0.180779    42A      0.190209    43A      0.198469  
      44A      0.209258    45A      0.211401    46A      0.229048  
      47A      0.235201    48A      0.246032    49A      0.254093  
      50A      0.267611    51A      0.271921    52A      0.274178  
      53A      0.284016    54A      0.291331    55A      0.300287  
      56A      0.306374    57A      0.309944    58A      0.317682  
      59A      0.318401    60A      0.321089    61A      0.332804  
      62A      0.336753    63A      0.339657    64A      0.349037  
      65A      0.353068    66A      0.355475    67A      0.356530  
      68A      0.362288    69A      0.368026    70A      0.373856  
      71A      0.377990    72A      0.390415    73A      0.396419  
      74A      0.398714    75A      0.408220    76A      0.413524  
      77A      0.419237    78A      0.420542    79A      0.429229  
      80A      0.434449    81A      0.439733    82A      0.447641  
      83A      0.460380    84A      0.461070    85A      0.467236  
      86A      0.473108    87A      0.478744    88A      0.486013  
      89A      0.489283    90A      0.492878    91A      0.495774  
      92A      0.502108    93A      0.510205    94A      0.517523  
      95A      0.521034    96A      0.525136    97A      0.533842  
      98A      0.539962    99A      0.547136   100A      0.556225  
     101A      0.562593   102A      0.568075   103A      0.575496  
     104A      0.593425   105A      0.598358   106A      0.602019  
     107A      0.605732   108A      0.608675   109A      0.615079  
     110A      0.624146   111A      0.626936   112A      0.636385  
     113A      0.646500   114A      0.649635   115A      0.661772  
     116A      0.670823   117A      0.679810   118A      0.693253  
     119A      0.696944   120A      0.704417   121A      0.718587  
     122A      0.721868   123A      0.727483   124A      0.735424  
     125A      0.750619   126A      0.758738   127A      0.781079  
     128A      0.790889   129A      0.807735   130A      0.809681  
     131A      0.820749   132A      0.830794   133A      0.850957  
     134A      0.851404   135A      0.857975   136A      0.875239  
     137A      0.881426   138A      0.886544   139A      0.890461  
     140A      0.902054   141A      0.921362   142A      0.926433  
     143A      0.936480   144A      0.938812   145A      0.945951  
     146A      0.956648   147A      0.971633   148A      0.978399  
     149A      0.985772   150A      0.997108   151A      1.002644  
     152A      1.007344   153A      1.016626   154A      1.021253  
     155A      1.027247   156A      1.030860   157A      1.043338  
     158A      1.052604   159A      1.056163   160A      1.065619  
     161A      1.072133   162A      1.077723   163A      1.083393  
     164A      1.089264   165A      1.091771   166A      1.099455  
     167A      1.104762   168A      1.110709   169A      1.115794  
     170A      1.126505   171A      1.133847   172A      1.137476  
     173A      1.149367   174A      1.152688   175A      1.160206  
     176A      1.165868   177A      1.182088   178A      1.184999  
     179A      1.192059   180A      1.196097   181A      1.198942  
     182A      1.204028   183A      1.213978   184A      1.226818  
     185A      1.235266   186A      1.239529   187A      1.255077  
     188A      1.255763   189A      1.258932   190A      1.268989  
     191A      1.271623   192A      1.276578   193A      1.290550  
     194A      1.295538   195A      1.301090   196A      1.317746  
     197A      1.321745   198A      1.343027   199A      1.347383  
     200A      1.351503   201A      1.361893   202A      1.374818  
     203A      1.383783   204A      1.392191   205A      1.397943  
     206A      1.405471   207A      1.419264   208A      1.422307  
     209A      1.427963   210A      1.433935   211A      1.437653  
     212A      1.459859   213A      1.466094   214A      1.472919  
     215A      1.484474   216A      1.500244   217A      1.509286  
     218A      1.522114   219A      1.528627   220A      1.541020  
     221A      1.555788   222A      1.558148   223A      1.565933  
     224A      1.571620   225A      1.584671   226A      1.601458  
     227A      1.609067   228A      1.619039   229A      1.623043  
     230A      1.628736   231A      1.642176   232A      1.658474  
     233A      1.670525   234A      1.677339   235A      1.684487  
     236A      1.695136   237A      1.706591   238A      1.724160  
     239A      1.732729   240A      1.741943   241A      1.752727  
     242A      1.761699   243A      1.770666   244A      1.778956  
     245A      1.792009   246A      1.805245   247A      1.817737  
     248A      1.825244   249A      1.833250   250A      1.846576  
     251A      1.851724   252A      1.860623   253A      1.876181  
     254A      1.892925   255A      1.906394   256A      1.908246  
     257A      1.934100   258A      1.939578   259A      1.959781  
     260A      1.971516   261A      1.984785   262A      1.995282  
     263A      2.021347   264A      2.024449   265A      2.035283  
     266A      2.039556   267A      2.060039   268A      2.069298  
     269A      2.075600   270A      2.087010   271A      2.101939  
     272A      2.107061   273A      2.111156   274A      2.131055  
     275A      2.139949   276A      2.147410   277A      2.159780  
     278A      2.167127   279A      2.182420   280A      2.188557  
     281A      2.208664   282A      2.215142   283A      2.235627  
     284A      2.254075   285A      2.262987   286A      2.269974  
     287A      2.274169   288A      2.297415   289A      2.314296  
     290A      2.325462   291A      2.329162   292A      2.357283  
     293A      2.385382   294A      2.390774   295A      2.419611  
     296A      2.435096   297A      2.444437   298A      2.473480  
     299A      2.492529   300A      2.514989   301A      2.521767  
     302A      2.555066   303A      2.570475   304A      2.571955  
     305A      2.608094   306A      2.621089   307A      2.639124  
     308A      2.654308   309A      2.690692   310A      2.707800  
     311A      2.719828   312A      2.747369   313A      2.759050  
     314A      2.767877   315A      2.774243   316A      2.798668  
     317A      2.838427   318A      2.861820   319A      2.885066  
     320A      2.892049   321A      2.904870   322A      2.937659  
     323A      2.941986   324A      2.976334   325A      2.994372  
     326A      3.010314   327A      3.031621   328A      3.048620  
     329A      3.065240   330A      3.097096   331A      3.131347  
     332A      3.150942   333A      3.174338   334A      3.224234  
     335A      3.256315   336A      3.271810   337A      3.306578  
     338A      3.310984   339A      3.363127   340A      3.397157  
     341A      3.441129   342A      3.500465   343A      3.515862  
     344A      3.521164   345A      3.527089   346A      3.541349  
     347A      3.572337   348A      3.626887   349A      3.650900  
     350A      3.661514   351A      3.681379   352A      3.704428  
     353A      3.713108   354A      3.751634   355A      3.769486  
     356A      3.815462   357A      3.834416   358A      3.846085  
     359A      3.853612   360A      3.874775   361A      3.916305  
     362A      3.942631   363A      3.957627   364A      3.976761  
     365A      4.011395   366A      4.016118   367A      4.026809  
     368A      4.046472   369A      4.057746   370A      4.081622  
     371A      4.105978   372A      4.119967   373A      4.127776  
     374A      4.156629   375A      4.165798   376A      4.189255  
     377A      4.193705   378A      4.206635   379A      4.226802  
     380A      4.238920   381A      4.260641   382A      4.268771  
     383A      4.278931   384A      4.316614   385A      4.323850  
     386A      4.337113   387A      4.360813   388A      4.369548  
     389A      4.384530   390A      4.399009   391A      4.408146  
     392A      4.439136   393A      4.469600   394A      4.489803  
     395A      4.502138   396A      4.516786   397A      4.532584  
     398A      4.544329   399A      4.546922   400A      4.558073  
     401A      4.585952   402A      4.603805   403A      4.621704  
     404A      4.637072   405A      4.650159   406A      4.658519  
     407A      4.676737   408A      4.679164   409A      4.701433  
     410A      4.715323   411A      4.741786   412A      4.746428  
     413A      4.764930   414A      4.774614   415A      4.808168  
     416A      4.836190   417A      4.848958   418A      4.851575  
     419A      4.864957   420A      4.888611   421A      4.893903  
     422A      4.916464   423A      4.928863   424A      4.945249  
     425A      4.977082   426A      5.005608   427A      5.009524  
     428A      5.037860   429A      5.042787   430A      5.055354  
     431A      5.071354   432A      5.087779   433A      5.095257  
     434A      5.109961   435A      5.125522   436A      5.157046  
     437A      5.162222   438A      5.179583   439A      5.196255  
     440A      5.214129   441A      5.233387   442A      5.260746  
     443A      5.268869   444A      5.288193   445A      5.300402  
     446A      5.336002   447A      5.362798   448A      5.366229  
     449A      5.374784   450A      5.408575   451A      5.413562  
     452A      5.432178   453A      5.446993   454A      5.454186  
     455A      5.492055   456A      5.514263   457A      5.547508  
     458A      5.564488   459A      5.566783   460A      5.592479  
     461A      5.595820   462A      5.601007   463A      5.609655  
     464A      5.652515   465A      5.686717   466A      5.696006  
     467A      5.718038   468A      5.722917   469A      5.767748  
     470A      5.776648   471A      5.785241   472A      5.804301  
     473A      5.814278   474A      5.830169   475A      5.855692  
     476A      5.866564   477A      5.907667   478A      6.005662  
     479A      6.024913   480A      6.040788   481A      6.083605  
     482A      6.110786   483A      6.115386   484A      6.138464  
     485A      6.176369   486A      6.215285   487A      6.226216  
     488A      6.251712   489A      6.300510   490A      6.304598  
     491A      6.310368   492A      6.401895   493A      6.444071  
     494A      6.490236   495A      6.505681   496A      6.722007  
     497A      6.785251   498A      6.821959   499A      6.832886  
     500A      6.878061   501A      6.916797   502A      6.984441  
     503A      6.994564   504A      6.999217   505A      7.037959  
     506A      7.102388   507A      7.155178   508A      7.215035  
     509A      7.257832   510A      7.364205   511A      7.378433  
     512A      7.393506   513A      7.544018   514A      7.562750  
     515A      7.627439   516A      7.780868   517A      7.820384  
     518A      7.845808   519A      7.859408   520A      7.884092  
     521A      7.924848   522A      7.948585   523A      8.003736  
     524A      8.034962   525A      8.150216   526A      8.220502  
     527A      8.286212   528A      8.303097   529A      8.309384  
     530A      8.378127   531A      8.432203   532A      8.592288  
     533A      8.648519   534A      8.943719   535A      9.043769  
     536A     10.035077   537A     10.126585   538A     10.257112  
     539A     10.408627   540A     10.700040   541A     10.762846  
     542A     11.058412   543A     12.082501   544A     12.510590  
     545A     13.317076   546A     14.130259   547A     16.254737  
     548A     18.187664   549A     18.636612   550A     53.072682  
     551A     55.028020   552A     67.380561  

    Final Occupation by Irrep:
              A 
    DOCC [    13 ]
    NA   [    13 ]
    NB   [    13 ]

  @DF-RHF Final Energy:  -154.14556579909464

   => Energetics <=

    Nuclear Repulsion Energy =             82.2235375026870656
    One-Electron Energy =                -372.4232304232972979
    Two-Electron Energy =                 136.0541271215155916
    Total Energy =                       -154.1455657990946406

Computation Completed


Properties will be evaluated at   0.000000,   0.000000,   0.000000 [a0]

Properties computed using the SCF density matrix


 Multipole Moments:

 ------------------------------------------------------------------------------------
     Multipole            Electronic (a.u.)      Nuclear  (a.u.)        Total (a.u.)
 ------------------------------------------------------------------------------------

 L = 1.  Multiply by 2.5417464519 to convert [e a0] to [Debye]
 Dipole X            :         86.5687316          -86.5766705           -0.0079389
 Dipole Y            :          2.9130843           -3.1628894           -0.2498051
 Dipole Z            :         -2.2803600            1.6672751           -0.6130849
 Magnitude           :                                                    0.6620715

 ------------------------------------------------------------------------------------

*** tstop() called on Moses-MBP.lan at Thu Feb 27 17:33:37 2025
Module time:
	user time   =      71.45 seconds =       1.19 minutes
	system time =       5.89 seconds =       0.10 minutes
	total time  =         10 seconds =       0.17 minutes
Total time:
	user time   =     164.30 seconds =       2.74 minutes
	system time =      14.51 seconds =       0.24 minutes
	total time  =         23 seconds =       0.38 minutes

*** tstart() called on Moses-MBP.lan
*** at Thu Feb 27 17:33:37 2025


  //>>>>>>>>>>>>>>>>>>>>>>>>>>>>>>>>>>>//
  //               DFMP2               //
  //<<<<<<<<<<<<<<<<<<<<<<<<<<<<<<<<<<<//

   => Loading Basis Set <=

    Name: (AUG-CC-PVTZ AUX)
    Role: RIFIT
    Keyword: DF_BASIS_MP2
    atoms 1-2, 10-11 entry C          line   148 file /Users/moseschung/miniconda3/envs/psi4/share/psi4/basis/aug-cc-pvtz-ri.gbs 
    atoms 3, 12      entry O          line   264 file /Users/moseschung/miniconda3/envs/psi4/share/psi4/basis/aug-cc-pvtz-ri.gbs 
    atoms 4-9, 13-18 entry H          line    30 file /Users/moseschung/miniconda3/envs/psi4/share/psi4/basis/aug-cc-pvtz-ri.gbs 

	 --------------------------------------------------------
	                          DF-MP2                         
	      2nd-Order Density-Fitted Moller-Plesset Theory     
	              RMP2 Wavefunction,  10 Threads             
	                                                         
	        Rob Parrish, Justin Turney, Andy Simmonett,      
	           Ed Hohenstein, and C. David Sherrill          
	 --------------------------------------------------------

   => Auxiliary Basis Set <=

  Basis Set: (AUG-CC-PVTZ AUX)
    Blend: AUG-CC-PVTZ-RI
    Number of shells: 336
    Number of basis functions: 1188
    Number of Cartesian functions: 1476
    Spherical Harmonics?: true
    Max angular momentum: 4

	 --------------------------------------------------------
	                 NBF =   552, NAUX =  1188
	 --------------------------------------------------------
	   CLASS    FOCC     OCC    AOCC    AVIR     VIR    FVIR
	   PAIRS       0      13      13     539     539       0
	 --------------------------------------------------------

	-----------------------------------------------------------
	 ==================> DF-MP2 Energies <==================== 
	-----------------------------------------------------------
	 Reference Energy          =    -154.1455657990946406 [Eh]
	 Singles Energy            =      -0.0000000000000000 [Eh]
	 Same-Spin Energy          =      -0.1481823461241986 [Eh]
	 Opposite-Spin Energy      =      -0.5185746637100921 [Eh]
	 Correlation Energy        =      -0.6667570098342906 [Eh]
	 Total Energy              =    -154.8123228089289398 [Eh]
	-----------------------------------------------------------
	 ================> DF-SCS-MP2 Energies <================== 
	-----------------------------------------------------------
	 SCS Same-Spin Scale       =       0.3333333333333333 [-]
	 SCS Opposite-Spin Scale   =       1.2000000000000000 [-]
	 SCS Same-Spin Energy      =      -0.0493941153747329 [Eh]
	 SCS Opposite-Spin Energy  =      -0.6222895964521105 [Eh]
	 SCS Correlation Energy    =      -0.6716837118268433 [Eh]
	 SCS Total Energy          =    -154.8172495109214708 [Eh]
	-----------------------------------------------------------


*** tstop() called on Moses-MBP.lan at Thu Feb 27 17:33:40 2025
Module time:
	user time   =      20.24 seconds =       0.34 minutes
	system time =       1.90 seconds =       0.03 minutes
	total time  =          3 seconds =       0.05 minutes
Total time:
	user time   =     184.54 seconds =       3.08 minutes
	system time =      16.41 seconds =       0.27 minutes
	total time  =         26 seconds =       0.43 minutes

    Psi4 stopped on: Thursday, 27 February 2025 05:33PM
    Psi4 wall time for execution: 0:00:12.84


    -----------------------------------------------------------------------
          Psi4: An Open-Source Ab Initio Electronic Structure Package
                               Psi4 1.9.1 release

                         Git: Rev {} zzzzzzz 


    D. G. A. Smith, L. A. Burns, A. C. Simmonett, R. M. Parrish,
    M. C. Schieber, R. Galvelis, P. Kraus, H. Kruse, R. Di Remigio,
    A. Alenaizan, A. M. James, S. Lehtola, J. P. Misiewicz, M. Scheurer,
    R. A. Shaw, J. B. Schriber, Y. Xie, Z. L. Glick, D. A. Sirianni,
    J. S. O'Brien, J. M. Waldrop, A. Kumar, E. G. Hohenstein,
    B. P. Pritchard, B. R. Brooks, H. F. Schaefer III, A. Yu. Sokolov,
    K. Patkowski, A. E. DePrince III, U. Bozkaya, R. A. King,
    F. A. Evangelista, J. M. Turney, T. D. Crawford, C. D. Sherrill,
    J. Chem. Phys. 152(18) 184108 (2020). https://doi.org/10.1063/5.0006002

                            Additional Code Authors
    E. T. Seidl, C. L. Janssen, E. F. Valeev, M. L. Leininger,
    J. F. Gonthier, R. M. Richard, H. R. McAlexander, M. Saitow, X. Wang,
    P. Verma, M. H. Lechner, A. Jiang, S. Behnle, A. G. Heide,
    M. F. Herbst, and D. L. Poole

             Previous Authors, Complete List of Code Contributors,
                       and Citations for Specific Modules
    https://github.com/psi4/psi4/blob/master/codemeta.json
    https://github.com/psi4/psi4/graphs/contributors
    http://psicode.org/psi4manual/master/introduction.html#citing-psifour

    -----------------------------------------------------------------------


    Psi4 started on: Thursday, 27 February 2025 05:33PM

    Process ID: 31137
    Host:       Moses-MBP.lan
    PSIDATADIR: /Users/moseschung/miniconda3/envs/psi4/share/psi4
    Memory:     9.3 GiB
    Threads:    10
    
  ==> Input QCSchema <==

--------------------------------------------------------------------------
{'driver': 'energy',
 'extras': {'psiapi': True, 'wfn_qcvars_only': True},
 'id': None,
 'keywords': {'SCF_TYPE': 'DF', 'function_kwargs': {}},
 'model': {'basis': 'aug-cc-pvtz', 'method': 'mp2'},
 'molecule': {'atom_labels': ['', '', '', '', '', '', '', '', '', '', '', '', '', '', '', '', '', ''],
              'atomic_numbers': [6, 6, 8, 1, 1, 1, 1, 1, 1, 6, 6, 8, 1, 1, 1, 1, 1, 1],
              'extras': {},
              'fix_com': True,
              'fix_orientation': True,
              'fix_symmetry': 'c1',
              'fragment_charges': [0.0, 0.0],
              'fragment_multiplicities': [1, 1],
              'fragments': [[0, 1, 2, 3, 4, 5, 6, 7, 8], [9, 10, 11, 12, 13, 14, 15, 16, 17]],
              'geometry': [-2.950238537338636, -1.953555404797417, 1.4424052748484546, -3.335942977901331,
                           -0.4402967386010467, -0.9265213809552204, -3.711197232990245, 2.111426904770415,
                           -0.21799313665443867, -4.004439263960414, 3.098404403931282, -1.709291295546864,
                           -2.5496657316208378, -3.924596445433696, 0.9904432568749569, -4.620480532229039,
                           -1.8693510983731418, 2.6501481388898074, -1.3514943304049296, -1.2017316452362712,
                           2.510658004939138, -4.976244152059981, -1.1586610073848365, -1.97934449723154,
                           -1.6676795262642825, -0.6352560035122798, -2.1466967531759598, 3.0152923592075216,
                           2.320252979990258, 0.5828916925758434, 3.848699375056933, -0.40240772978561723,
                           0.6963130546258223, 3.0382204062877016, -1.815384299682317, -1.4172246742267292,
                           3.7192134512144372, -1.0393833840720637, -2.910406890066236, 3.655297244473077,
                           3.3582360770033572, 2.2481051262464034, 0.9561333893411444, 2.466449751960177,
                           0.47968807968621513, 3.816243328852195, 3.2592030896726145, -1.0774632552261645,
                           3.028395720161446, -1.3424179758243557, 2.343942586698997, 5.911679371148986,
                           -0.5232028031771324, 0.9114338075695652],
              'mass_numbers': [12, 12, 16, 1, 1, 1, 1, 1, 1, 12, 12, 16, 1, 1, 1, 1, 1, 1],
              'masses': [12.0, 12.0, 15.99491461957, 1.00782503223, 1.00782503223, 1.00782503223, 1.00782503223,
                         1.00782503223, 1.00782503223, 12.0, 12.0, 15.99491461957, 1.00782503223, 1.00782503223,
                         1.00782503223, 1.00782503223, 1.00782503223, 1.00782503223],
              'molecular_charge': 0.0,
              'molecular_multiplicity': 1,
              'name': 'dimer',
              'provenance': {'creator': 'QCElemental',
                             'routine': 'qcelemental.molparse.from_string',
                             'version': '0.29.0'},
              'real': [True, True, True, True, True, True, True, True, True, True, True, True, True, True, True, True,
                       True, True],
              'schema_name': 'qcschema_molecule',
              'schema_version': 2,
              'symbols': ['C', 'C', 'O', 'H', 'H', 'H', 'H', 'H', 'H', 'C', 'C', 'O', 'H', 'H', 'H', 'H', 'H', 'H'],
              'validated': True},
 'protocols': {'stdout': True},
 'provenance': {'creator': 'QCElemental', 'routine': 'qcelemental.models.results', 'version': '0.29.0'},
 'schema_name': 'qcschema_input',
 'schema_version': 1}
--------------------------------------------------------------------------

Scratch directory: /tmp/
   => Libint2 <=

    Primary   basis highest AM E, G, H:  6, 6, 3
    Auxiliary basis highest AM E, G, H:  7, 7, 4
    Onebody   basis highest AM E, G, H:  -, -, -
    Solid Harmonics ordering:            Gaussian

*** tstart() called on Moses-MBP.lan
*** at Thu Feb 27 17:33:40 2025

   => Loading Basis Set <=

    Name: AUG-CC-PVTZ
    Role: ORBITAL
    Keyword: BASIS
    atoms 1-2, 10-11 entry C          line   239 file /Users/moseschung/miniconda3/envs/psi4/share/psi4/basis/aug-cc-pvtz.gbs 
    atoms 3, 12      entry O          line   331 file /Users/moseschung/miniconda3/envs/psi4/share/psi4/basis/aug-cc-pvtz.gbs 
    atoms 4-9, 13-18 entry H          line    40 file /Users/moseschung/miniconda3/envs/psi4/share/psi4/basis/aug-cc-pvtz.gbs 


         ---------------------------------------------------------
                                   SCF
               by Justin Turney, Rob Parrish, Andy Simmonett
                          and Daniel G. A. Smith
                              RHF Reference
                       10 Threads,   9536 MiB Core
         ---------------------------------------------------------

  ==> Geometry <==

    Molecular point group: c1
    Full point group: C1

    Geometry (in Bohr), charge = 0, multiplicity = 1:

       Center              X                  Y                   Z               Mass       
    ------------   -----------------  -----------------  -----------------  -----------------
         C           -2.950238537339    -1.953555404797     1.442405274848    12.000000000000
         C           -3.335942977901    -0.440296738601    -0.926521380955    12.000000000000
         O           -3.711197232990     2.111426904770    -0.217993136654    15.994914619570
         H           -4.004439263960     3.098404403931    -1.709291295547     1.007825032230
         H           -2.549665731621    -3.924596445434     0.990443256875     1.007825032230
         H           -4.620480532229    -1.869351098373     2.650148138890     1.007825032230
         H           -1.351494330405    -1.201731645236     2.510658004939     1.007825032230
         H           -4.976244152060    -1.158661007385    -1.979344497232     1.007825032230
         H           -1.667679526264    -0.635256003512    -2.146696753176     1.007825032230
         C            3.015292359208     2.320252979990     0.582891692576    12.000000000000
         C            3.848699375057    -0.402407729786     0.696313054626    12.000000000000
         O            3.038220406288    -1.815384299682    -1.417224674227    15.994914619570
         H            3.719213451214    -1.039383384072    -2.910406890066     1.007825032230
         H            3.655297244473     3.358236077003     2.248105126246     1.007825032230
         H            0.956133389341     2.466449751960     0.479688079686     1.007825032230
         H            3.816243328852     3.259203089673    -1.077463255226     1.007825032230
         H            3.028395720161    -1.342417975824     2.343942586699     1.007825032230
         H            5.911679371149    -0.523202803177     0.911433807570     1.007825032230

  Running in c1 symmetry.

  Rotational constants: A =      0.14128  B =      0.05100  C =      0.04438 [cm^-1]
  Rotational constants: A =   4235.36437  B =   1529.02660  C =   1330.36201 [MHz]
  Nuclear repulsion =  257.603633866130679

  Charge       = 0
  Multiplicity = 1
  Electrons    = 52
  Nalpha       = 26
  Nbeta        = 26

  ==> Algorithm <==

  SCF Algorithm Type is DF.
  DIIS enabled.
  MOM disabled.
  Fractional occupation disabled.
  Guess Type is SAD.
  Energy threshold   = 1.00e-08
  Density threshold  = 1.00e-08
  Integral threshold = 1.00e-12

  ==> Primary Basis <==

  Basis Set: AUG-CC-PVTZ
    Blend: AUG-CC-PVTZ
    Number of shells: 192
    Number of basis functions: 552
    Number of Cartesian functions: 630
    Spherical Harmonics?: true
    Max angular momentum: 3

   => Loading Basis Set <=

    Name: (AUG-CC-PVTZ AUX)
    Role: JKFIT
    Keyword: DF_BASIS_SCF
    atoms 1-2, 10-11 entry C          line   162 file /Users/moseschung/miniconda3/envs/psi4/share/psi4/basis/aug-cc-pvtz-jkfit.gbs 
    atoms 3, 12      entry O          line   286 file /Users/moseschung/miniconda3/envs/psi4/share/psi4/basis/aug-cc-pvtz-jkfit.gbs 
    atoms 4-9, 13-18 entry H          line    70 file /Users/moseschung/miniconda3/envs/psi4/share/psi4/basis/aug-cc-pvtz-jkfit.gbs 

  ==> Integral Setup <==

  DFHelper Memory: AOs need 2.651 GiB; user supplied 6.985 GiB. 
  Using in-core AOs.

  ==> MemDFJK: Density-Fitted J/K Matrices <==

    J tasked:                   Yes
    K tasked:                   Yes
    wK tasked:                   No
    OpenMP threads:              10
    Memory [MiB]:              7152
    Algorithm:                 Core
    Schwarz Cutoff:           1E-12
    Mask sparsity (%):       4.2389
    Fitting Condition:        1E-10

   => Auxiliary Basis Set <=

  Basis Set: (AUG-CC-PVTZ AUX)
    Blend: AUG-CC-PVTZ-JKFIT
    Number of shells: 348
    Number of basis functions: 1176
    Number of Cartesian functions: 1446
    Spherical Harmonics?: true
    Max angular momentum: 4

  Minimum eigenvalue in the overlap matrix is 5.7199202562E-06.
  Reciprocal condition number of the overlap matrix is 2.9541679415E-07.
    Using symmetric orthogonalization.

  ==> Pre-Iterations <==

  SCF Guess: Superposition of Atomic Densities via on-the-fly atomic UHF (no occupation information).

   -------------------------
    Irrep   Nso     Nmo    
   -------------------------
     A        552     552 
   -------------------------
    Total     552     552
   -------------------------

  ==> Iterations <==

                           Total Energy        Delta E     RMS |[F,P]|

   @DF-RHF iter SAD:  -307.07647118324513   -3.07076e+02   0.00000e+00 
   @DF-RHF iter   1:  -308.00284462728996   -9.26373e-01   1.32832e-03 DIIS/ADIIS
   @DF-RHF iter   2:  -308.22538940185308   -2.22545e-01   7.13649e-04 DIIS/ADIIS
   @DF-RHF iter   3:  -308.28453000039076   -5.91406e-02   1.20447e-04 DIIS/ADIIS
   @DF-RHF iter   4:  -308.28776178260421   -3.23178e-03   4.44143e-05 DIIS
   @DF-RHF iter   5:  -308.28811288359827   -3.51101e-04   8.74117e-06 DIIS
   @DF-RHF iter   6:  -308.28813377247752   -2.08889e-05   2.07736e-06 DIIS
   @DF-RHF iter   7:  -308.28813523364749   -1.46117e-06   6.13634e-07 DIIS
   @DF-RHF iter   8:  -308.28813534858114   -1.14934e-07   1.78702e-07 DIIS
   @DF-RHF iter   9:  -308.28813536049341   -1.19123e-08   4.63466e-08 DIIS
   @DF-RHF iter  10:  -308.28813536131230   -8.18886e-10   1.33765e-08 DIIS
   @DF-RHF iter  11:  -308.28813536135311   -4.08136e-11   5.01551e-09 DIIS
  Energy and wave function converged.


  ==> Post-Iterations <==

    Orbital Energies [Eh]
    ---------------------

    Doubly Occupied:                                                      

       1A    -20.556564     2A    -20.551944     3A    -11.271731  
       4A    -11.263936     5A    -11.210836     6A    -11.203282  
       7A     -1.363182     8A     -1.357252     9A     -1.011194  
      10A     -1.006625    11A     -0.845880    12A     -0.825606  
      13A     -0.697527    14A     -0.689110    15A     -0.641126  
      16A     -0.623786    17A     -0.606957    18A     -0.568644  
      19A     -0.543577    20A     -0.525243    21A     -0.521551  
      22A     -0.518859    23A     -0.482605    24A     -0.477657  
      25A     -0.444028    26A     -0.432302  

    Virtual:                                                              

      27A      0.026675    28A      0.034806    29A      0.038557  
      30A      0.040201    31A      0.051141    32A      0.055184  
      33A      0.056605    34A      0.059815    35A      0.068118  
      36A      0.080501    37A      0.087086    38A      0.090165  
      39A      0.111615    40A      0.112746    41A      0.118691  
      42A      0.124941    43A      0.128186    44A      0.133528  
      45A      0.136825    46A      0.144332    47A      0.153622  
      48A      0.158990    49A      0.162151    50A      0.166439  
      51A      0.169447    52A      0.176830    53A      0.183751  
      54A      0.190049    55A      0.196480    56A      0.203187  
      57A      0.215111    58A      0.222057    59A      0.236589  
      60A      0.244842    61A      0.249398    62A      0.263909  
      63A      0.274329    64A      0.283375    65A      0.286569  
      66A      0.292614    67A      0.297231    68A      0.302350  
      69A      0.305369    70A      0.312032    71A      0.317887  
      72A      0.323014    73A      0.329623    74A      0.335709  
      75A      0.341579    76A      0.345077    77A      0.350725  
      78A      0.356109    79A      0.360286    80A      0.365166  
      81A      0.369442    82A      0.372589    83A      0.378592  
      84A      0.390495    85A      0.393861    86A      0.399925  
      87A      0.408240    88A      0.415227    89A      0.417440  
      90A      0.421635    91A      0.429415    92A      0.438393  
      93A      0.443508    94A      0.443607    95A      0.448121  
      96A      0.453844    97A      0.459592    98A      0.461135  
      99A      0.467921   100A      0.476941   101A      0.477739  
     102A      0.485687   103A      0.493365   104A      0.496451  
     105A      0.503134   106A      0.504749   107A      0.516496  
     108A      0.519080   109A      0.523268   110A      0.527215  
     111A      0.529636   112A      0.540509   113A      0.549170  
     114A      0.555620   115A      0.562108   116A      0.570667  
     117A      0.573163   118A      0.580284   119A      0.582601  
     120A      0.590334   121A      0.598197   122A      0.607517  
     123A      0.610072   124A      0.615628   125A      0.631697  
     126A      0.637083   127A      0.639833   128A      0.654414  
     129A      0.657234   130A      0.665675   131A      0.678454  
     132A      0.693227   133A      0.703128   134A      0.724615  
     135A      0.729339   136A      0.752715   137A      0.760728  
     138A      0.776195   139A      0.784034   140A      0.795053  
     141A      0.804011   142A      0.811344   143A      0.815557  
     144A      0.828478   145A      0.832930   146A      0.845355  
     147A      0.850382   148A      0.851343   149A      0.859935  
     150A      0.871076   151A      0.874579   152A      0.885315  
     153A      0.891181   154A      0.902659   155A      0.909872  
     156A      0.920443   157A      0.926026   158A      0.929704  
     159A      0.935306   160A      0.940191   161A      0.949503  
     162A      0.951279   163A      0.957495   164A      0.965897  
     165A      0.978180   166A      0.984560   167A      0.995517  
     168A      1.003678   169A      1.010359   170A      1.024069  
     171A      1.024574   172A      1.030862   173A      1.035896  
     174A      1.042475   175A      1.049953   176A      1.051871  
     177A      1.061609   178A      1.076213   179A      1.077975  
     180A      1.085442   181A      1.092637   182A      1.099890  
     183A      1.102393   184A      1.110934   185A      1.117312  
     186A      1.120035   187A      1.127026   188A      1.133288  
     189A      1.138980   190A      1.149092   191A      1.159675  
     192A      1.164624   193A      1.173484   194A      1.182281  
     195A      1.186492   196A      1.191398   197A      1.195838  
     198A      1.209847   199A      1.214410   200A      1.226299  
     201A      1.233849   202A      1.244821   203A      1.246311  
     204A      1.252633   205A      1.260119   206A      1.272031  
     207A      1.280807   208A      1.295075   209A      1.301422  
     210A      1.306418   211A      1.319729   212A      1.325192  
     213A      1.325349   214A      1.338814   215A      1.353869  
     216A      1.366603   217A      1.368049   218A      1.380014  
     219A      1.388468   220A      1.400395   221A      1.418827  
     222A      1.423733   223A      1.431995   224A      1.441271  
     225A      1.450820   226A      1.457419   227A      1.461791  
     228A      1.475710   229A      1.485200   230A      1.488567  
     231A      1.501566   232A      1.516469   233A      1.521266  
     234A      1.531231   235A      1.542891   236A      1.549450  
     237A      1.558133   238A      1.575012   239A      1.589313  
     240A      1.606829   241A      1.609400   242A      1.619341  
     243A      1.648381   244A      1.654175   245A      1.658614  
     246A      1.664806   247A      1.674545   248A      1.688938  
     249A      1.701823   250A      1.704568   251A      1.708004  
     252A      1.717877   253A      1.726326   254A      1.729876  
     255A      1.743909   256A      1.747015   257A      1.749002  
     258A      1.760904   259A      1.779401   260A      1.783559  
     261A      1.786992   262A      1.806111   263A      1.812738  
     264A      1.827370   265A      1.833883   266A      1.850842  
     267A      1.854682   268A      1.868372   269A      1.885749  
     270A      1.893530   271A      1.901305   272A      1.907714  
     273A      1.925767   274A      1.933448   275A      1.947990  
     276A      1.951923   277A      1.953404   278A      1.979467  
     279A      1.984042   280A      1.999462   281A      2.002950  
     282A      2.024814   283A      2.037525   284A      2.052807  
     285A      2.074160   286A      2.079879   287A      2.090130  
     288A      2.098234   289A      2.111632   290A      2.115768  
     291A      2.125374   292A      2.138381   293A      2.148526  
     294A      2.163281   295A      2.168519   296A      2.184089  
     297A      2.208440   298A      2.215225   299A      2.224135  
     300A      2.239323   301A      2.267713   302A      2.271487  
     303A      2.292078   304A      2.294266   305A      2.317796  
     306A      2.323838   307A      2.352198   308A      2.373585  
     309A      2.380840   310A      2.421183   311A      2.440083  
     312A      2.451085   313A      2.463362   314A      2.466440  
     315A      2.493809   316A      2.500350   317A      2.527514  
     318A      2.551216   319A      2.576703   320A      2.603601  
     321A      2.637628   322A      2.645904   323A      2.679216  
     324A      2.704879   325A      2.719094   326A      2.750501  
     327A      2.755628   328A      2.809071   329A      2.860044  
     330A      2.868711   331A      2.890018   332A      2.901747  
     333A      2.936041   334A      2.941530   335A      2.958706  
     336A      2.965962   337A      2.980517   338A      2.999465  
     339A      3.010468   340A      3.060428   341A      3.069106  
     342A      3.082781   343A      3.092547   344A      3.119613  
     345A      3.145894   346A      3.185533   347A      3.244830  
     348A      3.253204   349A      3.326540   350A      3.339723  
     351A      3.382224   352A      3.424739   353A      3.449242  
     354A      3.483987   355A      3.512020   356A      3.516742  
     357A      3.531495   358A      3.548711   359A      3.555690  
     360A      3.566247   361A      3.625328   362A      3.649508  
     363A      3.653843   364A      3.657683   365A      3.687682  
     366A      3.705703   367A      3.710722   368A      3.724161  
     369A      3.728662   370A      3.745275   371A      3.770998  
     372A      3.779859   373A      3.789984   374A      3.811524  
     375A      3.823756   376A      3.826917   377A      3.841194  
     378A      3.851826   379A      3.863676   380A      3.877427  
     381A      3.905190   382A      3.913296   383A      3.934651  
     384A      3.952100   385A      3.967246   386A      3.983625  
     387A      3.995395   388A      3.998651   389A      4.013790  
     390A      4.027086   391A      4.037129   392A      4.057737  
     393A      4.065468   394A      4.080193   395A      4.085998  
     396A      4.101713   397A      4.107091   398A      4.132942  
     399A      4.137025   400A      4.149417   401A      4.157722  
     402A      4.175181   403A      4.183591   404A      4.220653  
     405A      4.225431   406A      4.230564   407A      4.246083  
     408A      4.257994   409A      4.276292   410A      4.278798  
     411A      4.316819   412A      4.329145   413A      4.350477  
     414A      4.357806   415A      4.380865   416A      4.388672  
     417A      4.397442   418A      4.414519   419A      4.424667  
     420A      4.444063   421A      4.500752   422A      4.510599  
     423A      4.523427   424A      4.538599   425A      4.568415  
     426A      4.578318   427A      4.595919   428A      4.609855  
     429A      4.634688   430A      4.636117   431A      4.652709  
     432A      4.663225   433A      4.670495   434A      4.687958  
     435A      4.705008   436A      4.735217   437A      4.745671  
     438A      4.764021   439A      4.784252   440A      4.791284  
     441A      4.826448   442A      4.852256   443A      4.863855  
     444A      4.888296   445A      4.901111   446A      4.911937  
     447A      4.922492   448A      4.944829   449A      4.951893  
     450A      4.967775   451A      4.982955   452A      5.003795  
     453A      5.013934   454A      5.051726   455A      5.058201  
     456A      5.058992   457A      5.077980   458A      5.101436  
     459A      5.113184   460A      5.129960   461A      5.141091  
     462A      5.148292   463A      5.189856   464A      5.201836  
     465A      5.212795   466A      5.222902   467A      5.240616  
     468A      5.264324   469A      5.275234   470A      5.307567  
     471A      5.337812   472A      5.349613   473A      5.371135  
     474A      5.378722   475A      5.414748   476A      5.425694  
     477A      5.430732   478A      5.446902   479A      5.487121  
     480A      5.509426   481A      5.532613   482A      5.557307  
     483A      5.577355   484A      5.584786   485A      5.594453  
     486A      5.619950   487A      5.627654   488A      5.662523  
     489A      5.670304   490A      5.689814   491A      5.738764  
     492A      5.744497   493A      5.781405   494A      5.799454  
     495A      5.830824   496A      5.842997   497A      5.865695  
     498A      5.903684   499A      6.019293   500A      6.040392  
     501A      6.071381   502A      6.112839   503A      6.120056  
     504A      6.165031   505A      6.188163   506A      6.230444  
     507A      6.256758   508A      6.265065   509A      6.285511  
     510A      6.316277   511A      6.323794   512A      6.359301  
     513A      6.428554   514A      6.475310   515A      6.712590  
     516A      6.725611   517A      6.782783   518A      6.815439  
     519A      6.839919   520A      6.860184   521A      6.895632  
     522A      6.921880   523A      6.992304   524A      7.005571  
     525A      7.021919   526A      7.026462   527A      7.206610  
     528A      7.220778   529A      7.363731   530A      7.375738  
     531A      7.398630   532A      7.415082   533A      7.528056  
     534A      7.550434   535A      7.552935   536A      7.565900  
     537A      7.633252   538A      7.665732   539A      7.856319  
     540A      7.900440   541A      7.943499   542A      8.008843  
     543A      8.270761   544A      8.291501   545A      8.638016  
     546A      8.654418   547A     16.255654   548A     16.567982  
     549A     17.908755   550A     18.191180   551A     18.653597  
     552A     18.946275  

    Final Occupation by Irrep:
              A 
    DOCC [    26 ]
    NA   [    26 ]
    NB   [    26 ]

  @DF-RHF Final Energy:  -308.28813536135311

   => Energetics <=

    Nuclear Repulsion Energy =            257.6036338661306786
    One-Electron Energy =                -931.3015317215108553
    Two-Electron Energy =                 365.4097624940271203
    Total Energy =                       -308.2881353613531132

Computation Completed


Properties will be evaluated at   0.000000,   0.000000,   0.000000 [a0]

Properties computed using the SCF density matrix


 Multipole Moments:

 ------------------------------------------------------------------------------------
     Multipole            Electronic (a.u.)      Nuclear  (a.u.)        Total (a.u.)
 ------------------------------------------------------------------------------------

 L = 1.  Multiply by 2.5417464519 to convert [e a0] to [Debye]
 Dipole X            :          0.3711652            0.0000057            0.3711709
 Dipole Y            :          0.3272410           -0.0000076            0.3272335
 Dipole Z            :         -0.6156392            0.0000057           -0.6156336
 Magnitude           :                                                    0.7898444

 ------------------------------------------------------------------------------------

*** tstop() called on Moses-MBP.lan at Thu Feb 27 17:33:52 2025
Module time:
	user time   =      88.41 seconds =       1.47 minutes
	system time =       6.94 seconds =       0.12 minutes
	total time  =         12 seconds =       0.20 minutes
Total time:
	user time   =     273.24 seconds =       4.55 minutes
	system time =      23.43 seconds =       0.39 minutes
	total time  =         38 seconds =       0.63 minutes

*** tstart() called on Moses-MBP.lan
*** at Thu Feb 27 17:33:52 2025


  //>>>>>>>>>>>>>>>>>>>>>>>>>>>>>>>>>>>//
  //               DFMP2               //
  //<<<<<<<<<<<<<<<<<<<<<<<<<<<<<<<<<<<//

   => Loading Basis Set <=

    Name: (AUG-CC-PVTZ AUX)
    Role: RIFIT
    Keyword: DF_BASIS_MP2
    atoms 1-2, 10-11 entry C          line   148 file /Users/moseschung/miniconda3/envs/psi4/share/psi4/basis/aug-cc-pvtz-ri.gbs 
    atoms 3, 12      entry O          line   264 file /Users/moseschung/miniconda3/envs/psi4/share/psi4/basis/aug-cc-pvtz-ri.gbs 
    atoms 4-9, 13-18 entry H          line    30 file /Users/moseschung/miniconda3/envs/psi4/share/psi4/basis/aug-cc-pvtz-ri.gbs 

	 --------------------------------------------------------
	                          DF-MP2                         
	      2nd-Order Density-Fitted Moller-Plesset Theory     
	              RMP2 Wavefunction,  10 Threads             
	                                                         
	        Rob Parrish, Justin Turney, Andy Simmonett,      
	           Ed Hohenstein, and C. David Sherrill          
	 --------------------------------------------------------

   => Auxiliary Basis Set <=

  Basis Set: (AUG-CC-PVTZ AUX)
    Blend: AUG-CC-PVTZ-RI
    Number of shells: 336
    Number of basis functions: 1188
    Number of Cartesian functions: 1476
    Spherical Harmonics?: true
    Max angular momentum: 4

	 --------------------------------------------------------
	                 NBF =   552, NAUX =  1188
	 --------------------------------------------------------
	   CLASS    FOCC     OCC    AOCC    AVIR     VIR    FVIR
	   PAIRS       0      26      26     526     526       0
	 --------------------------------------------------------

	-----------------------------------------------------------
	 ==================> DF-MP2 Energies <==================== 
	-----------------------------------------------------------
	 Reference Energy          =    -308.2881353613531132 [Eh]
	 Singles Energy            =      -0.0000000000000000 [Eh]
	 Same-Spin Energy          =      -0.2995424325782048 [Eh]
	 Opposite-Spin Energy      =      -1.0403388078078764 [Eh]
	 Correlation Energy        =      -1.3398812403860811 [Eh]
	 Total Energy              =    -309.6280166017392048 [Eh]
	-----------------------------------------------------------
	 ================> DF-SCS-MP2 Energies <================== 
	-----------------------------------------------------------
	 SCS Same-Spin Scale       =       0.3333333333333333 [-]
	 SCS Opposite-Spin Scale   =       1.2000000000000000 [-]
	 SCS Same-Spin Energy      =      -0.0998474775260683 [Eh]
	 SCS Opposite-Spin Energy  =      -1.2484065693694515 [Eh]
	 SCS Correlation Energy    =      -1.3482540468955198 [Eh]
	 SCS Total Energy          =    -309.6363894082486468 [Eh]
	-----------------------------------------------------------


*** tstop() called on Moses-MBP.lan at Thu Feb 27 17:33:57 2025
Module time:
	user time   =      32.08 seconds =       0.53 minutes
	system time =       2.58 seconds =       0.04 minutes
	total time  =          5 seconds =       0.08 minutes
Total time:
	user time   =     305.32 seconds =       5.09 minutes
	system time =      26.01 seconds =       0.43 minutes
	total time  =         43 seconds =       0.72 minutes

    Psi4 stopped on: Thursday, 27 February 2025 05:33PM
    Psi4 wall time for execution: 0:00:16.54


  //>>>>>>>>>>>>>>>>>>>>>>>>>>>>>>>>>>>//
  //          ManyBody Results         //
  //<<<<<<<<<<<<<<<<<<<<<<<<<<<<<<<<<<<//


   ==> N-Body: Counterpoise Corrected (CP) energies <==

        n-Body     Total Energy            Interaction Energy                          N-body Contribution to Interaction Energy
                   [Eh]                    [Eh]                  [kcal/mol]            [Eh]                  [kcal/mol]
             1  N/A                         0.000000000000        0.000000000000        0.000000000000        0.000000000000
  FULL/RTN   2  N/A                        -0.003587652604       -2.251285997479       -0.003587652604       -2.251285997479


    Psi4 stopped on: Thursday, 27 February 2025 05:33PM
    Psi4 wall time for execution: 0:00:44.23

*** Psi4 exiting successfully. Buy a developer a beer!
