
    -----------------------------------------------------------------------
          Psi4: An Open-Source Ab Initio Electronic Structure Package
                               Psi4 1.9.1 release

                         Git: Rev {} zzzzzzz 


    D. G. A. Smith, L. A. Burns, A. C. Simmonett, R. M. Parrish,
    M. C. Schieber, R. Galvelis, P. Kraus, H. Kruse, R. Di Remigio,
    A. Alenaizan, A. M. James, S. Lehtola, J. P. Misiewicz, M. Scheurer,
    R. A. Shaw, J. B. Schriber, Y. Xie, Z. L. Glick, D. A. Sirianni,
    J. S. O'Brien, J. M. Waldrop, A. Kumar, E. G. Hohenstein,
    B. P. Pritchard, B. R. Brooks, H. F. Schaefer III, A. Yu. Sokolov,
    K. Patkowski, A. E. DePrince III, U. Bozkaya, R. A. King,
    F. A. Evangelista, J. M. Turney, T. D. Crawford, C. D. Sherrill,
    J. Chem. Phys. 152(18) 184108 (2020). https://doi.org/10.1063/5.0006002

                            Additional Code Authors
    E. T. Seidl, C. L. Janssen, E. F. Valeev, M. L. Leininger,
    J. F. Gonthier, R. M. Richard, H. R. McAlexander, M. Saitow, X. Wang,
    P. Verma, M. H. Lechner, A. Jiang, S. Behnle, A. G. Heide,
    M. F. Herbst, and D. L. Poole

             Previous Authors, Complete List of Code Contributors,
                       and Citations for Specific Modules
    https://github.com/psi4/psi4/blob/master/codemeta.json
    https://github.com/psi4/psi4/graphs/contributors
    http://psicode.org/psi4manual/master/introduction.html#citing-psifour

    -----------------------------------------------------------------------


    Psi4 started on: Thursday, 27 February 2025 06:34PM

    Process ID: 32632
    Host:       Moses-MBP.lan
    PSIDATADIR: /Users/moseschung/miniconda3/envs/psi4/share/psi4
    Memory:     500.0 MiB
    Threads:    10
    
  ==> Input File <==

--------------------------------------------------------------------------
MEMORY 10 GB

molecule dimer {
0 1
C    1.304294   0.360127   0.101275
C    2.514623  -0.517210  -0.088200
O    3.722704   0.211060  -0.086902
H    3.758125   0.727118   0.722329
H    0.378416  -0.218942   0.060467
H    1.267261   1.131795  -0.671121
H    1.338390   0.861527   1.074343
H    2.472433  -1.021838  -1.057015
H    2.533191  -1.307406   0.676953
--
0 1
C   -2.419983   1.192488  -0.059165
C   -3.005409  -0.190353  -0.010925
O   -1.938905  -1.112634   0.050640
H   -2.291843  -2.003829   0.075668
H   -3.207285   1.946380  -0.105419
H   -1.780487   1.306299  -0.936664
H   -1.812361   1.381413   0.828168
H   -3.625825  -0.368260  -0.900919
H   -3.661554  -0.291977   0.865400

units ang
no_reorient
no_com
symmetry c1
}

set {
basis        aug-cc-pVTZ
scf_type     df
}

energy("mp2", bsse_type="cp")
--------------------------------------------------------------------------

  Memory set to   9.313 GiB by Python driver.

Scratch directory: /tmp/

  //>>>>>>>>>>>>>>>>>>>>>>>>>>>>>>>>>>>>>//
  // ManyBody Setup: N-Body Levels [1, 2]//
  //<<<<<<<<<<<<<<<<<<<<<<<<<<<<<<<<<<<<<//

        Number of 1-body computations:     2
        Number of 2-body computations:     1

    -----------------------------------------------------------------------
          Psi4: An Open-Source Ab Initio Electronic Structure Package
                               Psi4 1.9.1 release

                         Git: Rev {} zzzzzzz 


    D. G. A. Smith, L. A. Burns, A. C. Simmonett, R. M. Parrish,
    M. C. Schieber, R. Galvelis, P. Kraus, H. Kruse, R. Di Remigio,
    A. Alenaizan, A. M. James, S. Lehtola, J. P. Misiewicz, M. Scheurer,
    R. A. Shaw, J. B. Schriber, Y. Xie, Z. L. Glick, D. A. Sirianni,
    J. S. O'Brien, J. M. Waldrop, A. Kumar, E. G. Hohenstein,
    B. P. Pritchard, B. R. Brooks, H. F. Schaefer III, A. Yu. Sokolov,
    K. Patkowski, A. E. DePrince III, U. Bozkaya, R. A. King,
    F. A. Evangelista, J. M. Turney, T. D. Crawford, C. D. Sherrill,
    J. Chem. Phys. 152(18) 184108 (2020). https://doi.org/10.1063/5.0006002

                            Additional Code Authors
    E. T. Seidl, C. L. Janssen, E. F. Valeev, M. L. Leininger,
    J. F. Gonthier, R. M. Richard, H. R. McAlexander, M. Saitow, X. Wang,
    P. Verma, M. H. Lechner, A. Jiang, S. Behnle, A. G. Heide,
    M. F. Herbst, and D. L. Poole

             Previous Authors, Complete List of Code Contributors,
                       and Citations for Specific Modules
    https://github.com/psi4/psi4/blob/master/codemeta.json
    https://github.com/psi4/psi4/graphs/contributors
    http://psicode.org/psi4manual/master/introduction.html#citing-psifour

    -----------------------------------------------------------------------


    Psi4 started on: Thursday, 27 February 2025 06:34PM

    Process ID: 32632
    Host:       Moses-MBP.lan
    PSIDATADIR: /Users/moseschung/miniconda3/envs/psi4/share/psi4
    Memory:     9.3 GiB
    Threads:    10
    
  ==> Input QCSchema <==

--------------------------------------------------------------------------
{'driver': 'energy',
 'extras': {'psiapi': True, 'wfn_qcvars_only': True},
 'id': None,
 'keywords': {'SCF_TYPE': 'DF', 'function_kwargs': {}},
 'model': {'basis': 'aug-cc-pvtz', 'method': 'mp2'},
 'molecule': {'atom_labels': ['', '', '', '', '', '', '', '', '', '', '', '', '', '', '', '', '', ''],
              'atomic_numbers': [6, 6, 8, 1, 1, 1, 1, 1, 1, 6, 6, 8, 1, 1, 1, 1, 1, 1],
              'extras': {},
              'fix_com': True,
              'fix_orientation': True,
              'fix_symmetry': 'c1',
              'fragment_charges': [0.0, 0.0],
              'fragment_multiplicities': [1, 1],
              'fragments': [[0, 1, 2, 3, 4, 5, 6, 7, 8], [9, 10, 11, 12, 13, 14, 15, 16, 17]],
              'geometry': [2.4647584470778927, 0.6805414003827512, 0.19138201335574156, 4.75194877877714,
                           -0.9773852493480432, -0.16667384426538046, 7.034891006146358, 0.3988455960391292,
                           -0.16422097975453617, 7.101826995236201, 1.374053880890645, 1.3650039824758275,
                           0.7151026014912495, -0.4137404173599878, 0.11426606962805849, 2.3947762194738127,
                           2.138782580162543, -1.268234887043383, 2.5291905490515028, 1.6280500796873063,
                           2.0302140348027398, 4.672221233544074, -1.9309939645855763, -1.9974688605008062,
                           4.787037213474641, -2.4706392747803174, 1.2792557698070532, -4.573105098263812,
                           2.2534757278949544, -0.11180564621271241, -5.679399904986086, -0.35971503715927394,
                           -0.020645257920626773, -3.6639994332808103, -2.102573537872645, 0.09569573099318442,
                           -4.330955592547645, -3.7866880122500346, 0.14299179646114293, -6.060890256289011,
                           3.6781251360686076, -0.19921303841963878, -3.364632799938032, 2.4685473479594355,
                           -1.7700384315758313, -3.424865930460875, 2.6104922361470746, 1.5650107058681586,
                           -6.851816228838129, -0.6959105429610998, -1.7024901712213412, -6.919334253574613,
                           -0.5517565649328002, 1.6353689889712044],
              'mass_numbers': [12, 12, 16, 1, 1, 1, 1, 1, 1, 12, 12, 16, 1, 1, 1, 1, 1, 1],
              'masses': [12.0, 12.0, 15.99491461957, 1.00782503223, 1.00782503223, 1.00782503223, 1.00782503223,
                         1.00782503223, 1.00782503223, 12.0, 12.0, 15.99491461957, 1.00782503223, 1.00782503223,
                         1.00782503223, 1.00782503223, 1.00782503223, 1.00782503223],
              'molecular_charge': 0.0,
              'molecular_multiplicity': 1,
              'name': 'dimer',
              'provenance': {'creator': 'QCElemental',
                             'routine': 'qcelemental.molparse.from_string',
                             'version': '0.29.0'},
              'real': [False, False, False, False, False, False, False, False, False, True, True, True, True, True,
                       True, True, True, True],
              'schema_name': 'qcschema_molecule',
              'schema_version': 2,
              'symbols': ['C', 'C', 'O', 'H', 'H', 'H', 'H', 'H', 'H', 'C', 'C', 'O', 'H', 'H', 'H', 'H', 'H', 'H'],
              'validated': True},
 'protocols': {'stdout': True},
 'provenance': {'creator': 'QCElemental', 'routine': 'qcelemental.models.results', 'version': '0.29.0'},
 'schema_name': 'qcschema_input',
 'schema_version': 1}
--------------------------------------------------------------------------

Scratch directory: /tmp/
   => Libint2 <=

    Primary   basis highest AM E, G, H:  6, 6, 3
    Auxiliary basis highest AM E, G, H:  7, 7, 4
    Onebody   basis highest AM E, G, H:  -, -, -
    Solid Harmonics ordering:            Gaussian

*** tstart() called on Moses-MBP.lan
*** at Thu Feb 27 18:34:11 2025

   => Loading Basis Set <=

    Name: AUG-CC-PVTZ
    Role: ORBITAL
    Keyword: BASIS
    atoms 1-2, 10-11 entry C          line   239 file /Users/moseschung/miniconda3/envs/psi4/share/psi4/basis/aug-cc-pvtz.gbs 
    atoms 3, 12      entry O          line   331 file /Users/moseschung/miniconda3/envs/psi4/share/psi4/basis/aug-cc-pvtz.gbs 
    atoms 4-9, 13-18 entry H          line    40 file /Users/moseschung/miniconda3/envs/psi4/share/psi4/basis/aug-cc-pvtz.gbs 


         ---------------------------------------------------------
                                   SCF
               by Justin Turney, Rob Parrish, Andy Simmonett
                          and Daniel G. A. Smith
                              RHF Reference
                       10 Threads,   9536 MiB Core
         ---------------------------------------------------------

  ==> Geometry <==

    Molecular point group: c1
    Full point group: C1

    Geometry (in Bohr), charge = 0, multiplicity = 1:

       Center              X                  Y                   Z               Mass       
    ------------   -----------------  -----------------  -----------------  -----------------
      Gh(C)           2.464758447078     0.680541400383     0.191382013356    12.000000000000
      Gh(C)           4.751948778777    -0.977385249348    -0.166673844265    12.000000000000
      Gh(O)           7.034891006146     0.398845596039    -0.164220979755    15.994914619570
      Gh(H)           7.101826995236     1.374053880891     1.365003982476     1.007825032230
      Gh(H)           0.715102601491    -0.413740417360     0.114266069628     1.007825032230
      Gh(H)           2.394776219474     2.138782580163    -1.268234887043     1.007825032230
      Gh(H)           2.529190549052     1.628050079687     2.030214034803     1.007825032230
      Gh(H)           4.672221233544    -1.930993964586    -1.997468860501     1.007825032230
      Gh(H)           4.787037213475    -2.470639274780     1.279255769807     1.007825032230
         C           -4.573105098264     2.253475727895    -0.111805646213    12.000000000000
         C           -5.679399904986    -0.359715037159    -0.020645257921    12.000000000000
         O           -3.663999433281    -2.102573537873     0.095695730993    15.994914619570
         H           -4.330955592548    -3.786688012250     0.142991796461     1.007825032230
         H           -6.060890256289     3.678125136069    -0.199213038420     1.007825032230
         H           -3.364632799938     2.468547347959    -1.770038431576     1.007825032230
         H           -3.424865930461     2.610492236147     1.565010705868     1.007825032230
         H           -6.851816228838    -0.695910542961    -1.702490171221     1.007825032230
         H           -6.919334253575    -0.551756564933     1.635368988971     1.007825032230

  Running in c1 symmetry.

  Rotational constants: A =      0.25095  B =      0.02620  C =      0.02422 [cm^-1]
  Rotational constants: A =   7523.19558  B =    785.39896  C =    726.08195 [MHz]
  Nuclear repulsion =   82.263850382799902

  Charge       = 0
  Multiplicity = 1
  Electrons    = 26
  Nalpha       = 13
  Nbeta        = 13

  ==> Algorithm <==

  SCF Algorithm Type is DF.
  DIIS enabled.
  MOM disabled.
  Fractional occupation disabled.
  Guess Type is SAD.
  Energy threshold   = 1.00e-08
  Density threshold  = 1.00e-08
  Integral threshold = 1.00e-12

  ==> Primary Basis <==

  Basis Set: AUG-CC-PVTZ
    Blend: AUG-CC-PVTZ
    Number of shells: 192
    Number of basis functions: 552
    Number of Cartesian functions: 630
    Spherical Harmonics?: true
    Max angular momentum: 3

   => Loading Basis Set <=

    Name: (AUG-CC-PVTZ AUX)
    Role: JKFIT
    Keyword: DF_BASIS_SCF
    atoms 1-2, 10-11 entry C          line   162 file /Users/moseschung/miniconda3/envs/psi4/share/psi4/basis/aug-cc-pvtz-jkfit.gbs 
    atoms 3, 12      entry O          line   286 file /Users/moseschung/miniconda3/envs/psi4/share/psi4/basis/aug-cc-pvtz-jkfit.gbs 
    atoms 4-9, 13-18 entry H          line    70 file /Users/moseschung/miniconda3/envs/psi4/share/psi4/basis/aug-cc-pvtz-jkfit.gbs 

  ==> Integral Setup <==

  DFHelper Memory: AOs need 2.488 GiB; user supplied 6.985 GiB. 
  Using in-core AOs.

  ==> MemDFJK: Density-Fitted J/K Matrices <==

    J tasked:                   Yes
    K tasked:                   Yes
    wK tasked:                   No
    OpenMP threads:              10
    Memory [MiB]:              7152
    Algorithm:                 Core
    Schwarz Cutoff:           1E-12
    Mask sparsity (%):      10.3471
    Fitting Condition:        1E-10

   => Auxiliary Basis Set <=

  Basis Set: (AUG-CC-PVTZ AUX)
    Blend: AUG-CC-PVTZ-JKFIT
    Number of shells: 348
    Number of basis functions: 1176
    Number of Cartesian functions: 1446
    Spherical Harmonics?: true
    Max angular momentum: 4

  Minimum eigenvalue in the overlap matrix is 1.1635053756E-05.
  Reciprocal condition number of the overlap matrix is 6.7894561375E-07.
    Using symmetric orthogonalization.

  ==> Pre-Iterations <==

  SCF Guess: Superposition of Atomic Densities via on-the-fly atomic UHF (no occupation information).

   -------------------------
    Irrep   Nso     Nmo    
   -------------------------
     A        552     552 
   -------------------------
    Total     552     552
   -------------------------

  ==> Iterations <==

                           Total Energy        Delta E     RMS |[F,P]|

   @DF-RHF iter SAD:  -153.45035368842571   -1.53450e+02   0.00000e+00 
   @DF-RHF iter   1:  -153.99874586518914   -5.48392e-01   9.60867e-04 DIIS/ADIIS
   @DF-RHF iter   2:  -154.11088409308124   -1.12138e-01   5.34829e-04 DIIS/ADIIS
   @DF-RHF iter   3:  -154.14387680992201   -3.29927e-02   8.44122e-05 DIIS
   @DF-RHF iter   4:  -154.14547329995600   -1.59649e-03   3.23439e-05 DIIS
   @DF-RHF iter   5:  -154.14565718601281   -1.83886e-04   5.75762e-06 DIIS
   @DF-RHF iter   6:  -154.14566677400899   -9.58800e-06   1.27401e-06 DIIS
   @DF-RHF iter   7:  -154.14566732796595   -5.53957e-07   3.91282e-07 DIIS
   @DF-RHF iter   8:  -154.14566737161587   -4.36499e-08   1.04891e-07 DIIS
   @DF-RHF iter   9:  -154.14566737579116   -4.17529e-09   2.52840e-08 DIIS
   @DF-RHF iter  10:  -154.14566737605429   -2.63128e-10   4.81182e-09 DIIS
  Energy and wave function converged.


  ==> Post-Iterations <==

    Orbital Energies [Eh]
    ---------------------

    Doubly Occupied:                                                      

       1A    -20.555720     2A    -11.273643     3A    -11.210767  
       4A     -1.361858     5A     -1.014138     6A     -0.833339  
       7A     -0.703523     8A     -0.645666     9A     -0.573912  
      10A     -0.533572    11A     -0.524270    12A     -0.489008  
      13A     -0.440072  

    Virtual:                                                              

      14A      0.024576    15A      0.031714    16A      0.036113  
      17A      0.039478    18A      0.050322    19A      0.051587  
      20A      0.052751    21A      0.063294    22A      0.066516  
      23A      0.078771    24A      0.083205    25A      0.088943  
      26A      0.099043    27A      0.107530    28A      0.114848  
      29A      0.119584    30A      0.124395    31A      0.127995  
      32A      0.131504    33A      0.135256    34A      0.141229  
      35A      0.146571    36A      0.150581    37A      0.152020  
      38A      0.158269    39A      0.178780    40A      0.186077  
      41A      0.191516    42A      0.197207    43A      0.198139  
      44A      0.206529    45A      0.220337    46A      0.234508  
      47A      0.241311    48A      0.243249    49A      0.249742  
      50A      0.254621    51A      0.272670    52A      0.276815  
      53A      0.280171    54A      0.282428    55A      0.284135  
      56A      0.299522    57A      0.308397    58A      0.308904  
      59A      0.310781    60A      0.316660    61A      0.318101  
      62A      0.321108    63A      0.330606    64A      0.333284  
      65A      0.346563    66A      0.349832    67A      0.357147  
      68A      0.360784    69A      0.367241    70A      0.374510  
      71A      0.377313    72A      0.382129    73A      0.383436  
      74A      0.389544    75A      0.400746    76A      0.409328  
      77A      0.414686    78A      0.417685    79A      0.428836  
      80A      0.433292    81A      0.435776    82A      0.437404  
      83A      0.441181    84A      0.447331    85A      0.455537  
      86A      0.459599    87A      0.467674    88A      0.469890  
      89A      0.477221    90A      0.481647    91A      0.487278  
      92A      0.488941    93A      0.500025    94A      0.506341  
      95A      0.512429    96A      0.516159    97A      0.523793  
      98A      0.527254    99A      0.534596   100A      0.536419  
     101A      0.539183   102A      0.543398   103A      0.559744  
     104A      0.563935   105A      0.568112   106A      0.580136  
     107A      0.586733   108A      0.591027   109A      0.596284  
     110A      0.608935   111A      0.615324   112A      0.631318  
     113A      0.636347   114A      0.644128   115A      0.649352  
     116A      0.655642   117A      0.663667   118A      0.667843  
     119A      0.673742   120A      0.680331   121A      0.684168  
     122A      0.701537   123A      0.719299   124A      0.746688  
     125A      0.749961   126A      0.759902   127A      0.765497  
     128A      0.781174   129A      0.783634   130A      0.799364  
     131A      0.812549   132A      0.827204   133A      0.833356  
     134A      0.847052   135A      0.851527   136A      0.860194  
     137A      0.872067   138A      0.879545   139A      0.882615  
     140A      0.898731   141A      0.906375   142A      0.911983  
     143A      0.916223   144A      0.920230   145A      0.931611  
     146A      0.936976   147A      0.941412   148A      0.955931  
     149A      0.957659   150A      0.961708   151A      0.971243  
     152A      0.985178   153A      0.988302   154A      0.999068  
     155A      1.010200   156A      1.014236   157A      1.024141  
     158A      1.030020   159A      1.040158   160A      1.060789  
     161A      1.063222   162A      1.066780   163A      1.069718  
     164A      1.073608   165A      1.075236   166A      1.085134  
     167A      1.091888   168A      1.097977   169A      1.099783  
     170A      1.104542   171A      1.112364   172A      1.114477  
     173A      1.123602   174A      1.127340   175A      1.129681  
     176A      1.138495   177A      1.145093   178A      1.150232  
     179A      1.151201   180A      1.164300   181A      1.174048  
     182A      1.177730   183A      1.181167   184A      1.191451  
     185A      1.199208   186A      1.200726   187A      1.213512  
     188A      1.217761   189A      1.226936   190A      1.239014  
     191A      1.245403   192A      1.249711   193A      1.258620  
     194A      1.265203   195A      1.268072   196A      1.275712  
     197A      1.289368   198A      1.300811   199A      1.309653  
     200A      1.314336   201A      1.321096   202A      1.326768  
     203A      1.340554   204A      1.352549   205A      1.356905  
     206A      1.369666   207A      1.371174   208A      1.378368  
     209A      1.385259   210A      1.395035   211A      1.406351  
     212A      1.416178   213A      1.422501   214A      1.434580  
     215A      1.450726   216A      1.459002   217A      1.464361  
     218A      1.484626   219A      1.485008   220A      1.504114  
     221A      1.514269   222A      1.520037   223A      1.528328  
     224A      1.541544   225A      1.559716   226A      1.568583  
     227A      1.573925   228A      1.580966   229A      1.596237  
     230A      1.604521   231A      1.624383   232A      1.633465  
     233A      1.639590   234A      1.643042   235A      1.666717  
     236A      1.680483   237A      1.696480   238A      1.704568  
     239A      1.705138   240A      1.706881   241A      1.721136  
     242A      1.726649   243A      1.733494   244A      1.739150  
     245A      1.753785   246A      1.762129   247A      1.767858  
     248A      1.780614   249A      1.789945   250A      1.802719  
     251A      1.818430   252A      1.830295   253A      1.841542  
     254A      1.854862   255A      1.864988   256A      1.868424  
     257A      1.881104   258A      1.895828   259A      1.919625  
     260A      1.934939   261A      1.948601   262A      1.953138  
     263A      1.968607   264A      1.974794   265A      1.980965  
     266A      1.988089   267A      1.995503   268A      2.010408  
     269A      2.034919   270A      2.043729   271A      2.052814  
     272A      2.058020   273A      2.063911   274A      2.086166  
     275A      2.101200   276A      2.111251   277A      2.122776  
     278A      2.130729   279A      2.137712   280A      2.147633  
     281A      2.170657   282A      2.186036   283A      2.203252  
     284A      2.219129   285A      2.231972   286A      2.247869  
     287A      2.255016   288A      2.265330   289A      2.269626  
     290A      2.284129   291A      2.298247   292A      2.311519  
     293A      2.330274   294A      2.333761   295A      2.368550  
     296A      2.393619   297A      2.405263   298A      2.421981  
     299A      2.424134   300A      2.445810   301A      2.475361  
     302A      2.495483   303A      2.507534   304A      2.536001  
     305A      2.550133   306A      2.583652   307A      2.588845  
     308A      2.619458   309A      2.629409   310A      2.663882  
     311A      2.689197   312A      2.697008   313A      2.715576  
     314A      2.735933   315A      2.746360   316A      2.764491  
     317A      2.785340   318A      2.796727   319A      2.821434  
     320A      2.834999   321A      2.868775   322A      2.886296  
     323A      2.910030   324A      2.926110   325A      2.949662  
     326A      2.973473   327A      2.978951   328A      3.016694  
     329A      3.046154   330A      3.048053   331A      3.091245  
     332A      3.106700   333A      3.138997   334A      3.186579  
     335A      3.213416   336A      3.254155   337A      3.290145  
     338A      3.309361   339A      3.327039   340A      3.355084  
     341A      3.395513   342A      3.422133   343A      3.451302  
     344A      3.459876   345A      3.477290   346A      3.505655  
     347A      3.530708   348A      3.590062   349A      3.627393  
     350A      3.640361   351A      3.656422   352A      3.677255  
     353A      3.686290   354A      3.702235   355A      3.711964  
     356A      3.729876   357A      3.772786   358A      3.780199  
     359A      3.798285   360A      3.848267   361A      3.870129  
     362A      3.874161   363A      3.896831   364A      3.925458  
     365A      3.986205   366A      3.990965   367A      3.996174  
     368A      4.028422   369A      4.033246   370A      4.063730  
     371A      4.097589   372A      4.102422   373A      4.125203  
     374A      4.128472   375A      4.154872   376A      4.162539  
     377A      4.170476   378A      4.187603   379A      4.198781  
     380A      4.205702   381A      4.214792   382A      4.229853  
     383A      4.247562   384A      4.258048   385A      4.262259  
     386A      4.295906   387A      4.312572   388A      4.334086  
     389A      4.351629   390A      4.369390   391A      4.371823  
     392A      4.385776   393A      4.415953   394A      4.461660  
     395A      4.475816   396A      4.495007   397A      4.497687  
     398A      4.504317   399A      4.524288   400A      4.548846  
     401A      4.562124   402A      4.571114   403A      4.583519  
     404A      4.589090   405A      4.602486   406A      4.613943  
     407A      4.633148   408A      4.648661   409A      4.667732  
     410A      4.682452   411A      4.690572   412A      4.704688  
     413A      4.740003   414A      4.746187   415A      4.772214  
     416A      4.782913   417A      4.819712   418A      4.831357  
     419A      4.843763   420A      4.861868   421A      4.870804  
     422A      4.879659   423A      4.891178   424A      4.916601  
     425A      4.921282   426A      4.956045   427A      4.962169  
     428A      5.003858   429A      5.008740   430A      5.020647  
     431A      5.043095   432A      5.063410   433A      5.065104  
     434A      5.087662   435A      5.119400   436A      5.124317  
     437A      5.134355   438A      5.137832   439A      5.173980  
     440A      5.183759   441A      5.187509   442A      5.239249  
     443A      5.253313   444A      5.269691   445A      5.277785  
     446A      5.314394   447A      5.338809   448A      5.353572  
     449A      5.370879   450A      5.388207   451A      5.394468  
     452A      5.418407   453A      5.425807   454A      5.442030  
     455A      5.465865   456A      5.505124   457A      5.520449  
     458A      5.530843   459A      5.554281   460A      5.566594  
     461A      5.574737   462A      5.582081   463A      5.611856  
     464A      5.634638   465A      5.637196   466A      5.660291  
     467A      5.673301   468A      5.700642   469A      5.735486  
     470A      5.744692   471A      5.749040   472A      5.763136  
     473A      5.780424   474A      5.824987   475A      5.840405  
     476A      5.848478   477A      5.865332   478A      5.932403  
     479A      5.996542   480A      6.008771   481A      6.055867  
     482A      6.094087   483A      6.113133   484A      6.139661  
     485A      6.152586   486A      6.182425   487A      6.210610  
     488A      6.243850   489A      6.251733   490A      6.289805  
     491A      6.295591   492A      6.395995   493A      6.424628  
     494A      6.448669   495A      6.496162   496A      6.692657  
     497A      6.730712   498A      6.740448   499A      6.817150  
     500A      6.835242   501A      6.859323   502A      6.948819  
     503A      7.007209   504A      7.027159   505A      7.070159  
     506A      7.104748   507A      7.115788   508A      7.122285  
     509A      7.179993   510A      7.339902   511A      7.359767  
     512A      7.383713   513A      7.501862   514A      7.565719  
     515A      7.719210   516A      7.774030   517A      7.797342  
     518A      7.815144   519A      7.848067   520A      7.868017  
     521A      7.874097   522A      7.913605   523A      7.974515  
     524A      8.028304   525A      8.115060   526A      8.130150  
     527A      8.264612   528A      8.272637   529A      8.310419  
     530A      8.366982   531A      8.414654   532A      8.582034  
     533A      8.623231   534A      8.877379   535A      9.088490  
     536A      9.966805   537A     10.025062   538A     10.269329  
     539A     10.365860   540A     10.689107   541A     10.788097  
     542A     11.050199   543A     12.003910   544A     12.282915  
     545A     13.275722   546A     14.083122   547A     15.903751  
     548A     18.070023   549A     18.508193   550A     53.231513  
     551A     55.169317   552A     66.151204  

    Final Occupation by Irrep:
              A 
    DOCC [    13 ]
    NA   [    13 ]
    NB   [    13 ]

  @DF-RHF Final Energy:  -154.14566737605429

   => Energetics <=

    Nuclear Repulsion Energy =             82.2638503827999017
    One-Electron Energy =                -372.5000585100427202
    Two-Electron Energy =                 136.0905407511885414
    Total Energy =                       -154.1456673760542913

Computation Completed


Properties will be evaluated at   0.000000,   0.000000,   0.000000 [a0]

Properties computed using the SCF density matrix


 Multipole Moments:

 ------------------------------------------------------------------------------------
     Multipole            Electronic (a.u.)      Nuclear  (a.u.)        Total (a.u.)
 ------------------------------------------------------------------------------------

 L = 1.  Multiply by 2.5417464519 to convert [e a0] to [Debye]
 Dipole X            :        121.1386806         -121.7795205           -0.6408400
 Dipole Y            :          1.5911564           -1.7352146           -0.1440582
 Dipole Z            :          0.3464938           -0.3575097           -0.0110159
 Magnitude           :                                                    0.6569246

 ------------------------------------------------------------------------------------

*** tstop() called on Moses-MBP.lan at Thu Feb 27 18:34:20 2025
Module time:
	user time   =      69.11 seconds =       1.15 minutes
	system time =       7.45 seconds =       0.12 minutes
	total time  =          9 seconds =       0.15 minutes
Total time:
	user time   =      69.11 seconds =       1.15 minutes
	system time =       7.45 seconds =       0.12 minutes
	total time  =          9 seconds =       0.15 minutes

*** tstart() called on Moses-MBP.lan
*** at Thu Feb 27 18:34:20 2025


  //>>>>>>>>>>>>>>>>>>>>>>>>>>>>>>>>>>>//
  //               DFMP2               //
  //<<<<<<<<<<<<<<<<<<<<<<<<<<<<<<<<<<<//

   => Loading Basis Set <=

    Name: (AUG-CC-PVTZ AUX)
    Role: RIFIT
    Keyword: DF_BASIS_MP2
    atoms 1-2, 10-11 entry C          line   148 file /Users/moseschung/miniconda3/envs/psi4/share/psi4/basis/aug-cc-pvtz-ri.gbs 
    atoms 3, 12      entry O          line   264 file /Users/moseschung/miniconda3/envs/psi4/share/psi4/basis/aug-cc-pvtz-ri.gbs 
    atoms 4-9, 13-18 entry H          line    30 file /Users/moseschung/miniconda3/envs/psi4/share/psi4/basis/aug-cc-pvtz-ri.gbs 

	 --------------------------------------------------------
	                          DF-MP2                         
	      2nd-Order Density-Fitted Moller-Plesset Theory     
	              RMP2 Wavefunction,  10 Threads             
	                                                         
	        Rob Parrish, Justin Turney, Andy Simmonett,      
	           Ed Hohenstein, and C. David Sherrill          
	 --------------------------------------------------------

   => Auxiliary Basis Set <=

  Basis Set: (AUG-CC-PVTZ AUX)
    Blend: AUG-CC-PVTZ-RI
    Number of shells: 336
    Number of basis functions: 1188
    Number of Cartesian functions: 1476
    Spherical Harmonics?: true
    Max angular momentum: 4

	 --------------------------------------------------------
	                 NBF =   552, NAUX =  1188
	 --------------------------------------------------------
	   CLASS    FOCC     OCC    AOCC    AVIR     VIR    FVIR
	   PAIRS       0      13      13     539     539       0
	 --------------------------------------------------------

	-----------------------------------------------------------
	 ==================> DF-MP2 Energies <==================== 
	-----------------------------------------------------------
	 Reference Energy          =    -154.1456673760542913 [Eh]
	 Singles Energy            =      -0.0000000000000000 [Eh]
	 Same-Spin Energy          =      -0.1480957456884730 [Eh]
	 Opposite-Spin Energy      =      -0.5178913470831852 [Eh]
	 Correlation Energy        =      -0.6659870927716581 [Eh]
	 Total Energy              =    -154.8116544688259353 [Eh]
	-----------------------------------------------------------
	 ================> DF-SCS-MP2 Energies <================== 
	-----------------------------------------------------------
	 SCS Same-Spin Scale       =       0.3333333333333333 [-]
	 SCS Opposite-Spin Scale   =       1.2000000000000000 [-]
	 SCS Same-Spin Energy      =      -0.0493652485628243 [Eh]
	 SCS Opposite-Spin Energy  =      -0.6214696164998222 [Eh]
	 SCS Correlation Energy    =      -0.6708348650626466 [Eh]
	 SCS Total Energy          =    -154.8165022411169502 [Eh]
	-----------------------------------------------------------


*** tstop() called on Moses-MBP.lan at Thu Feb 27 18:34:24 2025
Module time:
	user time   =      20.36 seconds =       0.34 minutes
	system time =       2.52 seconds =       0.04 minutes
	total time  =          4 seconds =       0.07 minutes
Total time:
	user time   =      89.47 seconds =       1.49 minutes
	system time =       9.97 seconds =       0.17 minutes
	total time  =         13 seconds =       0.22 minutes

    Psi4 stopped on: Thursday, 27 February 2025 06:34PM
    Psi4 wall time for execution: 0:00:13.00


    -----------------------------------------------------------------------
          Psi4: An Open-Source Ab Initio Electronic Structure Package
                               Psi4 1.9.1 release

                         Git: Rev {} zzzzzzz 


    D. G. A. Smith, L. A. Burns, A. C. Simmonett, R. M. Parrish,
    M. C. Schieber, R. Galvelis, P. Kraus, H. Kruse, R. Di Remigio,
    A. Alenaizan, A. M. James, S. Lehtola, J. P. Misiewicz, M. Scheurer,
    R. A. Shaw, J. B. Schriber, Y. Xie, Z. L. Glick, D. A. Sirianni,
    J. S. O'Brien, J. M. Waldrop, A. Kumar, E. G. Hohenstein,
    B. P. Pritchard, B. R. Brooks, H. F. Schaefer III, A. Yu. Sokolov,
    K. Patkowski, A. E. DePrince III, U. Bozkaya, R. A. King,
    F. A. Evangelista, J. M. Turney, T. D. Crawford, C. D. Sherrill,
    J. Chem. Phys. 152(18) 184108 (2020). https://doi.org/10.1063/5.0006002

                            Additional Code Authors
    E. T. Seidl, C. L. Janssen, E. F. Valeev, M. L. Leininger,
    J. F. Gonthier, R. M. Richard, H. R. McAlexander, M. Saitow, X. Wang,
    P. Verma, M. H. Lechner, A. Jiang, S. Behnle, A. G. Heide,
    M. F. Herbst, and D. L. Poole

             Previous Authors, Complete List of Code Contributors,
                       and Citations for Specific Modules
    https://github.com/psi4/psi4/blob/master/codemeta.json
    https://github.com/psi4/psi4/graphs/contributors
    http://psicode.org/psi4manual/master/introduction.html#citing-psifour

    -----------------------------------------------------------------------


    Psi4 started on: Thursday, 27 February 2025 06:34PM

    Process ID: 32632
    Host:       Moses-MBP.lan
    PSIDATADIR: /Users/moseschung/miniconda3/envs/psi4/share/psi4
    Memory:     9.3 GiB
    Threads:    10
    
  ==> Input QCSchema <==

--------------------------------------------------------------------------
{'driver': 'energy',
 'extras': {'psiapi': True, 'wfn_qcvars_only': True},
 'id': None,
 'keywords': {'SCF_TYPE': 'DF', 'function_kwargs': {}},
 'model': {'basis': 'aug-cc-pvtz', 'method': 'mp2'},
 'molecule': {'atom_labels': ['', '', '', '', '', '', '', '', '', '', '', '', '', '', '', '', '', ''],
              'atomic_numbers': [6, 6, 8, 1, 1, 1, 1, 1, 1, 6, 6, 8, 1, 1, 1, 1, 1, 1],
              'extras': {},
              'fix_com': True,
              'fix_orientation': True,
              'fix_symmetry': 'c1',
              'fragment_charges': [0.0, 0.0],
              'fragment_multiplicities': [1, 1],
              'fragments': [[0, 1, 2, 3, 4, 5, 6, 7, 8], [9, 10, 11, 12, 13, 14, 15, 16, 17]],
              'geometry': [2.4647584470778927, 0.6805414003827512, 0.19138201335574156, 4.75194877877714,
                           -0.9773852493480432, -0.16667384426538046, 7.034891006146358, 0.3988455960391292,
                           -0.16422097975453617, 7.101826995236201, 1.374053880890645, 1.3650039824758275,
                           0.7151026014912495, -0.4137404173599878, 0.11426606962805849, 2.3947762194738127,
                           2.138782580162543, -1.268234887043383, 2.5291905490515028, 1.6280500796873063,
                           2.0302140348027398, 4.672221233544074, -1.9309939645855763, -1.9974688605008062,
                           4.787037213474641, -2.4706392747803174, 1.2792557698070532, -4.573105098263812,
                           2.2534757278949544, -0.11180564621271241, -5.679399904986086, -0.35971503715927394,
                           -0.020645257920626773, -3.6639994332808103, -2.102573537872645, 0.09569573099318442,
                           -4.330955592547645, -3.7866880122500346, 0.14299179646114293, -6.060890256289011,
                           3.6781251360686076, -0.19921303841963878, -3.364632799938032, 2.4685473479594355,
                           -1.7700384315758313, -3.424865930460875, 2.6104922361470746, 1.5650107058681586,
                           -6.851816228838129, -0.6959105429610998, -1.7024901712213412, -6.919334253574613,
                           -0.5517565649328002, 1.6353689889712044],
              'mass_numbers': [12, 12, 16, 1, 1, 1, 1, 1, 1, 12, 12, 16, 1, 1, 1, 1, 1, 1],
              'masses': [12.0, 12.0, 15.99491461957, 1.00782503223, 1.00782503223, 1.00782503223, 1.00782503223,
                         1.00782503223, 1.00782503223, 12.0, 12.0, 15.99491461957, 1.00782503223, 1.00782503223,
                         1.00782503223, 1.00782503223, 1.00782503223, 1.00782503223],
              'molecular_charge': 0.0,
              'molecular_multiplicity': 1,
              'name': 'dimer',
              'provenance': {'creator': 'QCElemental',
                             'routine': 'qcelemental.molparse.from_string',
                             'version': '0.29.0'},
              'real': [True, True, True, True, True, True, True, True, True, False, False, False, False, False, False,
                       False, False, False],
              'schema_name': 'qcschema_molecule',
              'schema_version': 2,
              'symbols': ['C', 'C', 'O', 'H', 'H', 'H', 'H', 'H', 'H', 'C', 'C', 'O', 'H', 'H', 'H', 'H', 'H', 'H'],
              'validated': True},
 'protocols': {'stdout': True},
 'provenance': {'creator': 'QCElemental', 'routine': 'qcelemental.models.results', 'version': '0.29.0'},
 'schema_name': 'qcschema_input',
 'schema_version': 1}
--------------------------------------------------------------------------

Scratch directory: /tmp/
   => Libint2 <=

    Primary   basis highest AM E, G, H:  6, 6, 3
    Auxiliary basis highest AM E, G, H:  7, 7, 4
    Onebody   basis highest AM E, G, H:  -, -, -
    Solid Harmonics ordering:            Gaussian

*** tstart() called on Moses-MBP.lan
*** at Thu Feb 27 18:34:24 2025

   => Loading Basis Set <=

    Name: AUG-CC-PVTZ
    Role: ORBITAL
    Keyword: BASIS
    atoms 1-2, 10-11 entry C          line   239 file /Users/moseschung/miniconda3/envs/psi4/share/psi4/basis/aug-cc-pvtz.gbs 
    atoms 3, 12      entry O          line   331 file /Users/moseschung/miniconda3/envs/psi4/share/psi4/basis/aug-cc-pvtz.gbs 
    atoms 4-9, 13-18 entry H          line    40 file /Users/moseschung/miniconda3/envs/psi4/share/psi4/basis/aug-cc-pvtz.gbs 


         ---------------------------------------------------------
                                   SCF
               by Justin Turney, Rob Parrish, Andy Simmonett
                          and Daniel G. A. Smith
                              RHF Reference
                       10 Threads,   9536 MiB Core
         ---------------------------------------------------------

  ==> Geometry <==

    Molecular point group: c1
    Full point group: C1

    Geometry (in Bohr), charge = 0, multiplicity = 1:

       Center              X                  Y                   Z               Mass       
    ------------   -----------------  -----------------  -----------------  -----------------
         C            2.464758447078     0.680541400383     0.191382013356    12.000000000000
         C            4.751948778777    -0.977385249348    -0.166673844265    12.000000000000
         O            7.034891006146     0.398845596039    -0.164220979755    15.994914619570
         H            7.101826995236     1.374053880891     1.365003982476     1.007825032230
         H            0.715102601491    -0.413740417360     0.114266069628     1.007825032230
         H            2.394776219474     2.138782580163    -1.268234887043     1.007825032230
         H            2.529190549052     1.628050079687     2.030214034803     1.007825032230
         H            4.672221233544    -1.930993964586    -1.997468860501     1.007825032230
         H            4.787037213475    -2.470639274780     1.279255769807     1.007825032230
      Gh(C)          -4.573105098264     2.253475727895    -0.111805646213    12.000000000000
      Gh(C)          -5.679399904986    -0.359715037159    -0.020645257921    12.000000000000
      Gh(O)          -3.663999433281    -2.102573537873     0.095695730993    15.994914619570
      Gh(H)          -4.330955592548    -3.786688012250     0.142991796461     1.007825032230
      Gh(H)          -6.060890256289     3.678125136069    -0.199213038420     1.007825032230
      Gh(H)          -3.364632799938     2.468547347959    -1.770038431576     1.007825032230
      Gh(H)          -3.424865930461     2.610492236147     1.565010705868     1.007825032230
      Gh(H)          -6.851816228838    -0.695910542961    -1.702490171221     1.007825032230
      Gh(H)          -6.919334253575    -0.551756564933     1.635368988971     1.007825032230

  Running in c1 symmetry.

  Rotational constants: A =      0.25095  B =      0.02620  C =      0.02422 [cm^-1]
  Rotational constants: A =   7523.19558  B =    785.39896  C =    726.08195 [MHz]
  Nuclear repulsion =   82.147491014011209

  Charge       = 0
  Multiplicity = 1
  Electrons    = 26
  Nalpha       = 13
  Nbeta        = 13

  ==> Algorithm <==

  SCF Algorithm Type is DF.
  DIIS enabled.
  MOM disabled.
  Fractional occupation disabled.
  Guess Type is SAD.
  Energy threshold   = 1.00e-08
  Density threshold  = 1.00e-08
  Integral threshold = 1.00e-12

  ==> Primary Basis <==

  Basis Set: AUG-CC-PVTZ
    Blend: AUG-CC-PVTZ
    Number of shells: 192
    Number of basis functions: 552
    Number of Cartesian functions: 630
    Spherical Harmonics?: true
    Max angular momentum: 3

   => Loading Basis Set <=

    Name: (AUG-CC-PVTZ AUX)
    Role: JKFIT
    Keyword: DF_BASIS_SCF
    atoms 1-2, 10-11 entry C          line   162 file /Users/moseschung/miniconda3/envs/psi4/share/psi4/basis/aug-cc-pvtz-jkfit.gbs 
    atoms 3, 12      entry O          line   286 file /Users/moseschung/miniconda3/envs/psi4/share/psi4/basis/aug-cc-pvtz-jkfit.gbs 
    atoms 4-9, 13-18 entry H          line    70 file /Users/moseschung/miniconda3/envs/psi4/share/psi4/basis/aug-cc-pvtz-jkfit.gbs 

  ==> Integral Setup <==

  DFHelper Memory: AOs need 2.488 GiB; user supplied 6.985 GiB. 
  Using in-core AOs.

  ==> MemDFJK: Density-Fitted J/K Matrices <==

    J tasked:                   Yes
    K tasked:                   Yes
    wK tasked:                   No
    OpenMP threads:              10
    Memory [MiB]:              7152
    Algorithm:                 Core
    Schwarz Cutoff:           1E-12
    Mask sparsity (%):      10.3471
    Fitting Condition:        1E-10

   => Auxiliary Basis Set <=

  Basis Set: (AUG-CC-PVTZ AUX)
    Blend: AUG-CC-PVTZ-JKFIT
    Number of shells: 348
    Number of basis functions: 1176
    Number of Cartesian functions: 1446
    Spherical Harmonics?: true
    Max angular momentum: 4

  Minimum eigenvalue in the overlap matrix is 1.1635053756E-05.
  Reciprocal condition number of the overlap matrix is 6.7894561375E-07.
    Using symmetric orthogonalization.

  ==> Pre-Iterations <==

  SCF Guess: Superposition of Atomic Densities via on-the-fly atomic UHF (no occupation information).

   -------------------------
    Irrep   Nso     Nmo    
   -------------------------
     A        552     552 
   -------------------------
    Total     552     552
   -------------------------

  ==> Iterations <==

                           Total Energy        Delta E     RMS |[F,P]|

   @DF-RHF iter SAD:  -153.45763897146588   -1.53458e+02   0.00000e+00 
   @DF-RHF iter   1:  -154.00370142865236   -5.46062e-01   9.36131e-04 DIIS/ADIIS
   @DF-RHF iter   2:  -154.11542933610320   -1.11728e-01   4.93970e-04 DIIS/ADIIS
   @DF-RHF iter   3:  -154.14321242581968   -2.77831e-02   8.37372e-05 DIIS
   @DF-RHF iter   4:  -154.14478721930013   -1.57479e-03   3.20411e-05 DIIS
   @DF-RHF iter   5:  -154.14497268913954   -1.85470e-04   6.22143e-06 DIIS
   @DF-RHF iter   6:  -154.14498295174369   -1.02626e-05   1.42453e-06 DIIS
   @DF-RHF iter   7:  -154.14498368528189   -7.33538e-07   4.04589e-07 DIIS
   @DF-RHF iter   8:  -154.14498373999373   -5.47118e-08   1.27950e-07 DIIS
   @DF-RHF iter   9:  -154.14498374609843   -6.10470e-09   3.28496e-08 DIIS
   @DF-RHF iter  10:  -154.14498374652510   -4.26667e-10   6.25983e-09 DIIS
  Energy and wave function converged.


  ==> Post-Iterations <==

    Orbital Energies [Eh]
    ---------------------

    Doubly Occupied:                                                      

       1A    -20.555822     2A    -11.273414     3A    -11.219209  
       4A     -1.362302     5A     -1.014914     6A     -0.848739  
       7A     -0.686129     8A     -0.625735     9A     -0.614170  
      10A     -0.543340    11A     -0.526595    12A     -0.482054  
      13A     -0.442772  

    Virtual:                                                              

      14A      0.019203    15A      0.032529    16A      0.032991  
      17A      0.037321    18A      0.048315    19A      0.050634  
      20A      0.054000    21A      0.062238    22A      0.064732  
      23A      0.074396    24A      0.079477    25A      0.085671  
      26A      0.095159    27A      0.103923    28A      0.110560  
      29A      0.114985    30A      0.121105    31A      0.125098  
      32A      0.131406    33A      0.133860    34A      0.140610  
      35A      0.142940    36A      0.150770    37A      0.154630  
      38A      0.162241    39A      0.166112    40A      0.175229  
      41A      0.188157    42A      0.194910    43A      0.198483  
      44A      0.206887    45A      0.209616    46A      0.226633  
      47A      0.236102    48A      0.238703    49A      0.242580  
      50A      0.252007    51A      0.266327    52A      0.269712  
      53A      0.272417    54A      0.277790    55A      0.281906  
      56A      0.291275    57A      0.295214    58A      0.297255  
      59A      0.313071    60A      0.317698    61A      0.319764  
      62A      0.327998    63A      0.334403    64A      0.340860  
      65A      0.345078    66A      0.350513    67A      0.357500  
      68A      0.361757    69A      0.366613    70A      0.371181  
      71A      0.375788    72A      0.380548    73A      0.383706  
      74A      0.385255    75A      0.390645    76A      0.396426  
      77A      0.405016    78A      0.410432    79A      0.415233  
      80A      0.419884    81A      0.424780    82A      0.429298  
      83A      0.435078    84A      0.440263    85A      0.449281  
      86A      0.452298    87A      0.461203    88A      0.464367  
      89A      0.465850    90A      0.472273    91A      0.474098  
      92A      0.490101    93A      0.493492    94A      0.498562  
      95A      0.499932    96A      0.509165    97A      0.516779  
      98A      0.521318    99A      0.524702   100A      0.533265  
     101A      0.538279   102A      0.547090   103A      0.553098  
     104A      0.563473   105A      0.569607   106A      0.572833  
     107A      0.577199   108A      0.588419   109A      0.592706  
     110A      0.600252   111A      0.602477   112A      0.608252  
     113A      0.630962   114A      0.632670   115A      0.644021  
     116A      0.652802   117A      0.657230   118A      0.666774  
     119A      0.670946   120A      0.682279   121A      0.687399  
     122A      0.694561   123A      0.714692   124A      0.727349  
     125A      0.740524   126A      0.747705   127A      0.764294  
     128A      0.776606   129A      0.785779   130A      0.799631  
     131A      0.812084   132A      0.815894   133A      0.820430  
     134A      0.826134   135A      0.846249   136A      0.847567  
     137A      0.862795   138A      0.870608   139A      0.879077  
     140A      0.888476   141A      0.892759   142A      0.906374  
     143A      0.913069   144A      0.927737   145A      0.932363  
     146A      0.942973   147A      0.949291   148A      0.955323  
     149A      0.958597   150A      0.968288   151A      0.970971  
     152A      0.974598   153A      0.985738   154A      0.995833  
     155A      0.999092   156A      1.004919   157A      1.014855  
     158A      1.021968   159A      1.024470   160A      1.036124  
     161A      1.045401   162A      1.050805   163A      1.054702  
     164A      1.063620   165A      1.070096   166A      1.073548  
     167A      1.087041   168A      1.088836   169A      1.092732  
     170A      1.102754   171A      1.109652   172A      1.114774  
     173A      1.118293   174A      1.124423   175A      1.127317  
     176A      1.131147   177A      1.140932   178A      1.143051  
     179A      1.148954   180A      1.160259   181A      1.162877  
     182A      1.167669   183A      1.175331   184A      1.183866  
     185A      1.192020   186A      1.197617   187A      1.210601  
     188A      1.211725   189A      1.220742   190A      1.224806  
     191A      1.233292   192A      1.242941   193A      1.251996  
     194A      1.260444   195A      1.263423   196A      1.272820  
     197A      1.284119   198A      1.290197   199A      1.294839  
     200A      1.304339   201A      1.310810   202A      1.315524  
     203A      1.325735   204A      1.329478   205A      1.348987  
     206A      1.356775   207A      1.364073   208A      1.379347  
     209A      1.383101   210A      1.392040   211A      1.397189  
     212A      1.415062   213A      1.419841   214A      1.424934  
     215A      1.438722   216A      1.450767   217A      1.466869  
     218A      1.469561   219A      1.482692   220A      1.493666  
     221A      1.502563   222A      1.511750   223A      1.516977  
     224A      1.525372   225A      1.535942   226A      1.552192  
     227A      1.555910   228A      1.561408   229A      1.578344  
     230A      1.585476   231A      1.592004   232A      1.605456  
     233A      1.626716   234A      1.633177   235A      1.639687  
     236A      1.656250   237A      1.668993   238A      1.681768  
     239A      1.697847   240A      1.703882   241A      1.711853  
     242A      1.722675   243A      1.729365   244A      1.738967  
     245A      1.747511   246A      1.753261   247A      1.774086  
     248A      1.782142   249A      1.789791   250A      1.800371  
     251A      1.821237   252A      1.826196   253A      1.830480  
     254A      1.837106   255A      1.849939   256A      1.867896  
     257A      1.886316   258A      1.895591   259A      1.901050  
     260A      1.911626   261A      1.930006   262A      1.941883  
     263A      1.944078   264A      1.963783   265A      1.983488  
     266A      1.995184   267A      2.002923   268A      2.020955  
     269A      2.022105   270A      2.039003   271A      2.042078  
     272A      2.055434   273A      2.067407   274A      2.082840  
     275A      2.096970   276A      2.113995   277A      2.127857  
     278A      2.131866   279A      2.138582   280A      2.143666  
     281A      2.153946   282A      2.174720   283A      2.189678  
     284A      2.202291   285A      2.223037   286A      2.229726  
     287A      2.246992   288A      2.256192   289A      2.273496  
     290A      2.280464   291A      2.284052   292A      2.309896  
     293A      2.339912   294A      2.343346   295A      2.355895  
     296A      2.392285   297A      2.402898   298A      2.415025  
     299A      2.425006   300A      2.433128   301A      2.462033  
     302A      2.490275   303A      2.494205   304A      2.521697  
     305A      2.537974   306A      2.575145   307A      2.585131  
     308A      2.599201   309A      2.637045   310A      2.669736  
     311A      2.685282   312A      2.694683   313A      2.698272  
     314A      2.705179   315A      2.734209   316A      2.746956  
     317A      2.763069   318A      2.774723   319A      2.798196  
     320A      2.802823   321A      2.839046   322A      2.849096  
     323A      2.888448   324A      2.909107   325A      2.934912  
     326A      2.965873   327A      2.990821   328A      2.995977  
     329A      3.000750   330A      3.034410   331A      3.058431  
     332A      3.089426   333A      3.122413   334A      3.171418  
     335A      3.203656   336A      3.225518   337A      3.294639  
     338A      3.315507   339A      3.342704   340A      3.349044  
     341A      3.374713   342A      3.427530   343A      3.434078  
     344A      3.483644   345A      3.500849   346A      3.539884  
     347A      3.547799   348A      3.564224   349A      3.605855  
     350A      3.635984   351A      3.638515   352A      3.660667  
     353A      3.667566   354A      3.692333   355A      3.725399  
     356A      3.759799   357A      3.772295   358A      3.791619  
     359A      3.812780   360A      3.820211   361A      3.850048  
     362A      3.857297   363A      3.874833   364A      3.907120  
     365A      3.950035   366A      3.979282   367A      3.994598  
     368A      3.999313   369A      4.022229   370A      4.082776  
     371A      4.095353   372A      4.101404   373A      4.109234  
     374A      4.128088   375A      4.133063   376A      4.145714  
     377A      4.153428   378A      4.181444   379A      4.194521  
     380A      4.205458   381A      4.212025   382A      4.218065  
     383A      4.234899   384A      4.250463   385A      4.267830  
     386A      4.286592   387A      4.307351   388A      4.321084  
     389A      4.329761   390A      4.355021   391A      4.376001  
     392A      4.400613   393A      4.403983   394A      4.432001  
     395A      4.443167   396A      4.466561   397A      4.484925  
     398A      4.492232   399A      4.527037   400A      4.539248  
     401A      4.567448   402A      4.573414   403A      4.577031  
     404A      4.599083   405A      4.616946   406A      4.622352  
     407A      4.631014   408A      4.647725   409A      4.670167  
     410A      4.696933   411A      4.706832   412A      4.726768  
     413A      4.740082   414A      4.751956   415A      4.755408  
     416A      4.784346   417A      4.804443   418A      4.823631  
     419A      4.844711   420A      4.854451   421A      4.864298  
     422A      4.874307   423A      4.889958   424A      4.899087  
     425A      4.905717   426A      4.918561   427A      4.947113  
     428A      4.970455   429A      4.978874   430A      4.979689  
     431A      5.033305   432A      5.039822   433A      5.060056  
     434A      5.077590   435A      5.087856   436A      5.104777  
     437A      5.121805   438A      5.136867   439A      5.154267  
     440A      5.179314   441A      5.194944   442A      5.200645  
     443A      5.219905   444A      5.248740   445A      5.284091  
     446A      5.295603   447A      5.312640   448A      5.331365  
     449A      5.358421   450A      5.371050   451A      5.397966  
     452A      5.413119   453A      5.422763   454A      5.436895  
     455A      5.461465   456A      5.479230   457A      5.495924  
     458A      5.537038   459A      5.549552   460A      5.557304  
     461A      5.559189   462A      5.569291   463A      5.576539  
     464A      5.584913   465A      5.604411   466A      5.652447  
     467A      5.659719   468A      5.670801   469A      5.704716  
     470A      5.724367   471A      5.734858   472A      5.764509  
     473A      5.785698   474A      5.845297   475A      5.855093  
     476A      5.867598   477A      5.910942   478A      5.972534  
     479A      5.991812   480A      6.025751   481A      6.031172  
     482A      6.076407   483A      6.089428   484A      6.098988  
     485A      6.162336   486A      6.188446   487A      6.215749  
     488A      6.256996   489A      6.264438   490A      6.287891  
     491A      6.291206   492A      6.314459   493A      6.401090  
     494A      6.456188   495A      6.536671   496A      6.670452  
     497A      6.703296   498A      6.791661   499A      6.820080  
     500A      6.834754   501A      6.853238   502A      6.923862  
     503A      6.945793   504A      6.968048   505A      7.024573  
     506A      7.033402   507A      7.126073   508A      7.148049  
     509A      7.221361   510A      7.290267   511A      7.344643  
     512A      7.371439   513A      7.443985   514A      7.521080  
     515A      7.637636   516A      7.722793   517A      7.837509  
     518A      7.848805   519A      7.854322   520A      7.871894  
     521A      7.874512   522A      7.907451   523A      7.964690  
     524A      8.073785   525A      8.078762   526A      8.112580  
     527A      8.181617   528A      8.220951   529A      8.318638  
     530A      8.344752   531A      8.393274   532A      8.584946  
     533A      8.630382   534A      8.865071   535A      9.042880  
     536A      9.976254   537A     10.071811   538A     10.329502  
     539A     10.394712   540A     10.404894   541A     10.799860  
     542A     11.102426   543A     11.857249   544A     12.292631  
     545A     13.306369   546A     14.154338   547A     16.134317  
     548A     17.982331   549A     18.944535   550A     53.093404  
     551A     54.315575   552A     65.780536  

    Final Occupation by Irrep:
              A 
    DOCC [    13 ]
    NA   [    13 ]
    NB   [    13 ]

  @DF-RHF Final Energy:  -154.14498374652510

   => Energetics <=

    Nuclear Repulsion Energy =             82.1474910140112087
    One-Electron Energy =                -372.1945570218709918
    Two-Electron Energy =                 135.9020822613346695
    Total Energy =                       -154.1449837465250994

Computation Completed


Properties will be evaluated at   0.000000,   0.000000,   0.000000 [a0]

Properties computed using the SCF density matrix


 Multipole Moments:

 ------------------------------------------------------------------------------------
     Multipole            Electronic (a.u.)      Nuclear  (a.u.)        Total (a.u.)
 ------------------------------------------------------------------------------------

 L = 1.  Multiply by 2.5417464519 to convert [e a0] to [Debye]
 Dipole X            :       -122.3190369          121.7795262           -0.5395107
 Dipole Y            :         -1.7153980            1.7352146            0.0198165
 Dipole Z            :          0.1148971            0.3575173            0.4724143
 Magnitude           :                                                    0.7173840

 ------------------------------------------------------------------------------------

*** tstop() called on Moses-MBP.lan at Thu Feb 27 18:38:55 2025
Module time:
	user time   =      72.14 seconds =       1.20 minutes
	system time =       8.02 seconds =       0.13 minutes
	total time  =        271 seconds =       4.52 minutes
Total time:
	user time   =     161.85 seconds =       2.70 minutes
	system time =      18.09 seconds =       0.30 minutes
	total time  =        284 seconds =       4.73 minutes

*** tstart() called on Moses-MBP.lan
*** at Thu Feb 27 18:38:55 2025


  //>>>>>>>>>>>>>>>>>>>>>>>>>>>>>>>>>>>//
  //               DFMP2               //
  //<<<<<<<<<<<<<<<<<<<<<<<<<<<<<<<<<<<//

   => Loading Basis Set <=

    Name: (AUG-CC-PVTZ AUX)
    Role: RIFIT
    Keyword: DF_BASIS_MP2
    atoms 1-2, 10-11 entry C          line   148 file /Users/moseschung/miniconda3/envs/psi4/share/psi4/basis/aug-cc-pvtz-ri.gbs 
    atoms 3, 12      entry O          line   264 file /Users/moseschung/miniconda3/envs/psi4/share/psi4/basis/aug-cc-pvtz-ri.gbs 
    atoms 4-9, 13-18 entry H          line    30 file /Users/moseschung/miniconda3/envs/psi4/share/psi4/basis/aug-cc-pvtz-ri.gbs 

	 --------------------------------------------------------
	                          DF-MP2                         
	      2nd-Order Density-Fitted Moller-Plesset Theory     
	              RMP2 Wavefunction,  10 Threads             
	                                                         
	        Rob Parrish, Justin Turney, Andy Simmonett,      
	           Ed Hohenstein, and C. David Sherrill          
	 --------------------------------------------------------

   => Auxiliary Basis Set <=

  Basis Set: (AUG-CC-PVTZ AUX)
    Blend: AUG-CC-PVTZ-RI
    Number of shells: 336
    Number of basis functions: 1188
    Number of Cartesian functions: 1476
    Spherical Harmonics?: true
    Max angular momentum: 4

	 --------------------------------------------------------
	                 NBF =   552, NAUX =  1188
	 --------------------------------------------------------
	   CLASS    FOCC     OCC    AOCC    AVIR     VIR    FVIR
	   PAIRS       0      13      13     539     539       0
	 --------------------------------------------------------

	-----------------------------------------------------------
	 ==================> DF-MP2 Energies <==================== 
	-----------------------------------------------------------
	 Reference Energy          =    -154.1449837465250994 [Eh]
	 Singles Energy            =      -0.0000000000000000 [Eh]
	 Same-Spin Energy          =      -0.1482018023422663 [Eh]
	 Opposite-Spin Energy      =      -0.5182599177209110 [Eh]
	 Correlation Energy        =      -0.6664617200631773 [Eh]
	 Total Energy              =    -154.8114454665882818 [Eh]
	-----------------------------------------------------------
	 ================> DF-SCS-MP2 Energies <================== 
	-----------------------------------------------------------
	 SCS Same-Spin Scale       =       0.3333333333333333 [-]
	 SCS Opposite-Spin Scale   =       1.2000000000000000 [-]
	 SCS Same-Spin Energy      =      -0.0494006007807554 [Eh]
	 SCS Opposite-Spin Energy  =      -0.6219119012650931 [Eh]
	 SCS Correlation Energy    =      -0.6713125020458486 [Eh]
	 SCS Total Energy          =    -154.8162962485709500 [Eh]
	-----------------------------------------------------------


*** tstop() called on Moses-MBP.lan at Thu Feb 27 18:38:59 2025
Module time:
	user time   =      20.28 seconds =       0.34 minutes
	system time =       2.51 seconds =       0.04 minutes
	total time  =          4 seconds =       0.07 minutes
Total time:
	user time   =     182.13 seconds =       3.04 minutes
	system time =      20.60 seconds =       0.34 minutes
	total time  =        288 seconds =       4.80 minutes

    Psi4 stopped on: Thursday, 27 February 2025 06:38PM
    Psi4 wall time for execution: 0:04:34.74


    -----------------------------------------------------------------------
          Psi4: An Open-Source Ab Initio Electronic Structure Package
                               Psi4 1.9.1 release

                         Git: Rev {} zzzzzzz 


    D. G. A. Smith, L. A. Burns, A. C. Simmonett, R. M. Parrish,
    M. C. Schieber, R. Galvelis, P. Kraus, H. Kruse, R. Di Remigio,
    A. Alenaizan, A. M. James, S. Lehtola, J. P. Misiewicz, M. Scheurer,
    R. A. Shaw, J. B. Schriber, Y. Xie, Z. L. Glick, D. A. Sirianni,
    J. S. O'Brien, J. M. Waldrop, A. Kumar, E. G. Hohenstein,
    B. P. Pritchard, B. R. Brooks, H. F. Schaefer III, A. Yu. Sokolov,
    K. Patkowski, A. E. DePrince III, U. Bozkaya, R. A. King,
    F. A. Evangelista, J. M. Turney, T. D. Crawford, C. D. Sherrill,
    J. Chem. Phys. 152(18) 184108 (2020). https://doi.org/10.1063/5.0006002

                            Additional Code Authors
    E. T. Seidl, C. L. Janssen, E. F. Valeev, M. L. Leininger,
    J. F. Gonthier, R. M. Richard, H. R. McAlexander, M. Saitow, X. Wang,
    P. Verma, M. H. Lechner, A. Jiang, S. Behnle, A. G. Heide,
    M. F. Herbst, and D. L. Poole

             Previous Authors, Complete List of Code Contributors,
                       and Citations for Specific Modules
    https://github.com/psi4/psi4/blob/master/codemeta.json
    https://github.com/psi4/psi4/graphs/contributors
    http://psicode.org/psi4manual/master/introduction.html#citing-psifour

    -----------------------------------------------------------------------


    Psi4 started on: Thursday, 27 February 2025 06:34PM

    Process ID: 32632
    Host:       Moses-MBP.lan
    PSIDATADIR: /Users/moseschung/miniconda3/envs/psi4/share/psi4
    Memory:     9.3 GiB
    Threads:    10
    
  ==> Input QCSchema <==

--------------------------------------------------------------------------
{'driver': 'energy',
 'extras': {'psiapi': True, 'wfn_qcvars_only': True},
 'id': None,
 'keywords': {'SCF_TYPE': 'DF', 'function_kwargs': {}},
 'model': {'basis': 'aug-cc-pvtz', 'method': 'mp2'},
 'molecule': {'atom_labels': ['', '', '', '', '', '', '', '', '', '', '', '', '', '', '', '', '', ''],
              'atomic_numbers': [6, 6, 8, 1, 1, 1, 1, 1, 1, 6, 6, 8, 1, 1, 1, 1, 1, 1],
              'extras': {},
              'fix_com': True,
              'fix_orientation': True,
              'fix_symmetry': 'c1',
              'fragment_charges': [0.0, 0.0],
              'fragment_multiplicities': [1, 1],
              'fragments': [[0, 1, 2, 3, 4, 5, 6, 7, 8], [9, 10, 11, 12, 13, 14, 15, 16, 17]],
              'geometry': [2.4647584470778927, 0.6805414003827512, 0.19138201335574156, 4.75194877877714,
                           -0.9773852493480432, -0.16667384426538046, 7.034891006146358, 0.3988455960391292,
                           -0.16422097975453617, 7.101826995236201, 1.374053880890645, 1.3650039824758275,
                           0.7151026014912495, -0.4137404173599878, 0.11426606962805849, 2.3947762194738127,
                           2.138782580162543, -1.268234887043383, 2.5291905490515028, 1.6280500796873063,
                           2.0302140348027398, 4.672221233544074, -1.9309939645855763, -1.9974688605008062,
                           4.787037213474641, -2.4706392747803174, 1.2792557698070532, -4.573105098263812,
                           2.2534757278949544, -0.11180564621271241, -5.679399904986086, -0.35971503715927394,
                           -0.020645257920626773, -3.6639994332808103, -2.102573537872645, 0.09569573099318442,
                           -4.330955592547645, -3.7866880122500346, 0.14299179646114293, -6.060890256289011,
                           3.6781251360686076, -0.19921303841963878, -3.364632799938032, 2.4685473479594355,
                           -1.7700384315758313, -3.424865930460875, 2.6104922361470746, 1.5650107058681586,
                           -6.851816228838129, -0.6959105429610998, -1.7024901712213412, -6.919334253574613,
                           -0.5517565649328002, 1.6353689889712044],
              'mass_numbers': [12, 12, 16, 1, 1, 1, 1, 1, 1, 12, 12, 16, 1, 1, 1, 1, 1, 1],
              'masses': [12.0, 12.0, 15.99491461957, 1.00782503223, 1.00782503223, 1.00782503223, 1.00782503223,
                         1.00782503223, 1.00782503223, 12.0, 12.0, 15.99491461957, 1.00782503223, 1.00782503223,
                         1.00782503223, 1.00782503223, 1.00782503223, 1.00782503223],
              'molecular_charge': 0.0,
              'molecular_multiplicity': 1,
              'name': 'dimer',
              'provenance': {'creator': 'QCElemental',
                             'routine': 'qcelemental.molparse.from_string',
                             'version': '0.29.0'},
              'real': [True, True, True, True, True, True, True, True, True, True, True, True, True, True, True, True,
                       True, True],
              'schema_name': 'qcschema_molecule',
              'schema_version': 2,
              'symbols': ['C', 'C', 'O', 'H', 'H', 'H', 'H', 'H', 'H', 'C', 'C', 'O', 'H', 'H', 'H', 'H', 'H', 'H'],
              'validated': True},
 'protocols': {'stdout': True},
 'provenance': {'creator': 'QCElemental', 'routine': 'qcelemental.models.results', 'version': '0.29.0'},
 'schema_name': 'qcschema_input',
 'schema_version': 1}
--------------------------------------------------------------------------

Scratch directory: /tmp/
   => Libint2 <=

    Primary   basis highest AM E, G, H:  6, 6, 3
    Auxiliary basis highest AM E, G, H:  7, 7, 4
    Onebody   basis highest AM E, G, H:  -, -, -
    Solid Harmonics ordering:            Gaussian

*** tstart() called on Moses-MBP.lan
*** at Thu Feb 27 18:38:59 2025

   => Loading Basis Set <=

    Name: AUG-CC-PVTZ
    Role: ORBITAL
    Keyword: BASIS
    atoms 1-2, 10-11 entry C          line   239 file /Users/moseschung/miniconda3/envs/psi4/share/psi4/basis/aug-cc-pvtz.gbs 
    atoms 3, 12      entry O          line   331 file /Users/moseschung/miniconda3/envs/psi4/share/psi4/basis/aug-cc-pvtz.gbs 
    atoms 4-9, 13-18 entry H          line    40 file /Users/moseschung/miniconda3/envs/psi4/share/psi4/basis/aug-cc-pvtz.gbs 


         ---------------------------------------------------------
                                   SCF
               by Justin Turney, Rob Parrish, Andy Simmonett
                          and Daniel G. A. Smith
                              RHF Reference
                       10 Threads,   9536 MiB Core
         ---------------------------------------------------------

  ==> Geometry <==

    Molecular point group: c1
    Full point group: C1

    Geometry (in Bohr), charge = 0, multiplicity = 1:

       Center              X                  Y                   Z               Mass       
    ------------   -----------------  -----------------  -----------------  -----------------
         C            2.464758447078     0.680541400383     0.191382013356    12.000000000000
         C            4.751948778777    -0.977385249348    -0.166673844265    12.000000000000
         O            7.034891006146     0.398845596039    -0.164220979755    15.994914619570
         H            7.101826995236     1.374053880891     1.365003982476     1.007825032230
         H            0.715102601491    -0.413740417360     0.114266069628     1.007825032230
         H            2.394776219474     2.138782580163    -1.268234887043     1.007825032230
         H            2.529190549052     1.628050079687     2.030214034803     1.007825032230
         H            4.672221233544    -1.930993964586    -1.997468860501     1.007825032230
         H            4.787037213475    -2.470639274780     1.279255769807     1.007825032230
         C           -4.573105098264     2.253475727895    -0.111805646213    12.000000000000
         C           -5.679399904986    -0.359715037159    -0.020645257921    12.000000000000
         O           -3.663999433281    -2.102573537873     0.095695730993    15.994914619570
         H           -4.330955592548    -3.786688012250     0.142991796461     1.007825032230
         H           -6.060890256289     3.678125136069    -0.199213038420     1.007825032230
         H           -3.364632799938     2.468547347959    -1.770038431576     1.007825032230
         H           -3.424865930461     2.610492236147     1.565010705868     1.007825032230
         H           -6.851816228838    -0.695910542961    -1.702490171221     1.007825032230
         H           -6.919334253575    -0.551756564933     1.635368988971     1.007825032230

  Running in c1 symmetry.

  Rotational constants: A =      0.25095  B =      0.02620  C =      0.02422 [cm^-1]
  Rotational constants: A =   7523.19558  B =    785.39896  C =    726.08195 [MHz]
  Nuclear repulsion =  237.883020133928142

  Charge       = 0
  Multiplicity = 1
  Electrons    = 52
  Nalpha       = 26
  Nbeta        = 26

  ==> Algorithm <==

  SCF Algorithm Type is DF.
  DIIS enabled.
  MOM disabled.
  Fractional occupation disabled.
  Guess Type is SAD.
  Energy threshold   = 1.00e-08
  Density threshold  = 1.00e-08
  Integral threshold = 1.00e-12

  ==> Primary Basis <==

  Basis Set: AUG-CC-PVTZ
    Blend: AUG-CC-PVTZ
    Number of shells: 192
    Number of basis functions: 552
    Number of Cartesian functions: 630
    Spherical Harmonics?: true
    Max angular momentum: 3

   => Loading Basis Set <=

    Name: (AUG-CC-PVTZ AUX)
    Role: JKFIT
    Keyword: DF_BASIS_SCF
    atoms 1-2, 10-11 entry C          line   162 file /Users/moseschung/miniconda3/envs/psi4/share/psi4/basis/aug-cc-pvtz-jkfit.gbs 
    atoms 3, 12      entry O          line   286 file /Users/moseschung/miniconda3/envs/psi4/share/psi4/basis/aug-cc-pvtz-jkfit.gbs 
    atoms 4-9, 13-18 entry H          line    70 file /Users/moseschung/miniconda3/envs/psi4/share/psi4/basis/aug-cc-pvtz-jkfit.gbs 

  ==> Integral Setup <==

  DFHelper Memory: AOs need 2.488 GiB; user supplied 6.985 GiB. 
  Using in-core AOs.

  ==> MemDFJK: Density-Fitted J/K Matrices <==

    J tasked:                   Yes
    K tasked:                   Yes
    wK tasked:                   No
    OpenMP threads:              10
    Memory [MiB]:              7152
    Algorithm:                 Core
    Schwarz Cutoff:           1E-12
    Mask sparsity (%):      10.3471
    Fitting Condition:        1E-10

   => Auxiliary Basis Set <=

  Basis Set: (AUG-CC-PVTZ AUX)
    Blend: AUG-CC-PVTZ-JKFIT
    Number of shells: 348
    Number of basis functions: 1176
    Number of Cartesian functions: 1446
    Spherical Harmonics?: true
    Max angular momentum: 4

  Minimum eigenvalue in the overlap matrix is 1.1635053756E-05.
  Reciprocal condition number of the overlap matrix is 6.7894561375E-07.
    Using symmetric orthogonalization.

  ==> Pre-Iterations <==

  SCF Guess: Superposition of Atomic Densities via on-the-fly atomic UHF (no occupation information).

   -------------------------
    Irrep   Nso     Nmo    
   -------------------------
     A        552     552 
   -------------------------
    Total     552     552
   -------------------------

  ==> Iterations <==

                           Total Energy        Delta E     RMS |[F,P]|

   @DF-RHF iter SAD:  -306.98341880808874   -3.06983e+02   0.00000e+00 
   @DF-RHF iter   1:  -308.00604169966726   -1.02262e+00   1.32904e-03 DIIS/ADIIS
   @DF-RHF iter   2:  -308.22901459857462   -2.22973e-01   7.08538e-04 DIIS/ADIIS
   @DF-RHF iter   3:  -308.28664220392523   -5.76276e-02   1.19397e-04 DIIS/ADIIS
   @DF-RHF iter   4:  -308.28983724320761   -3.19504e-03   4.52764e-05 DIIS
   @DF-RHF iter   5:  -308.29020046533753   -3.63222e-04   8.40092e-06 DIIS
   @DF-RHF iter   6:  -308.29022019587512   -1.97305e-05   1.88258e-06 DIIS
   @DF-RHF iter   7:  -308.29022144337989   -1.24750e-06   5.54471e-07 DIIS
   @DF-RHF iter   8:  -308.29022153912388   -9.57440e-08   1.67021e-07 DIIS
   @DF-RHF iter   9:  -308.29022154940338   -1.02795e-08   4.44787e-08 DIIS
   @DF-RHF iter  10:  -308.29022155015667   -7.53289e-10   1.30926e-08 DIIS
   @DF-RHF iter  11:  -308.29022155019567   -3.89946e-11   4.92194e-09 DIIS
  Energy and wave function converged.


  ==> Post-Iterations <==

    Orbital Energies [Eh]
    ---------------------

    Doubly Occupied:                                                      

       1A    -20.562642     2A    -20.546357     3A    -11.278894  
       4A    -11.262235     5A    -11.215147     6A    -11.201884  
       7A     -1.369326     8A     -1.352866     9A     -1.019398  
      10A     -1.001183    11A     -0.840211    12A     -0.835251  
      13A     -0.710687    14A     -0.675683    15A     -0.651327  
      16A     -0.614249    17A     -0.602446    18A     -0.581639  
      19A     -0.538907    20A     -0.531313    21A     -0.528776  
      22A     -0.513511    23A     -0.492102    24A     -0.469727  
      25A     -0.446418    26A     -0.431941  

    Virtual:                                                              

      27A      0.024855    28A      0.034470    29A      0.035658  
      30A      0.039358    31A      0.049516    32A      0.052385  
      33A      0.055337    34A      0.062218    35A      0.065908  
      36A      0.081306    37A      0.082916    38A      0.091979  
      39A      0.107182    40A      0.113699    41A      0.119822  
      42A      0.122218    43A      0.125962    44A      0.134258  
      45A      0.137281    46A      0.138689    47A      0.147728  
      48A      0.152603    49A      0.158085    50A      0.161578  
      51A      0.171605    52A      0.175896    53A      0.182976  
      54A      0.199097    55A      0.200950    56A      0.207445  
      57A      0.213605    58A      0.223178    59A      0.228101  
      60A      0.238545    61A      0.243896    62A      0.255729  
      63A      0.266712    64A      0.267726    65A      0.272771  
      66A      0.276518    67A      0.283885    68A      0.291150  
      69A      0.296598    70A      0.305434    71A      0.311361  
      72A      0.315350    73A      0.325132    74A      0.328561  
      75A      0.336517    76A      0.346117    77A      0.350614  
      78A      0.358397    79A      0.361450    80A      0.364930  
      81A      0.368191    82A      0.370573    83A      0.373948  
      84A      0.375562    85A      0.383600    86A      0.385139  
      87A      0.395472    88A      0.400086    89A      0.405614  
      90A      0.413238    91A      0.415099    92A      0.423949  
      93A      0.427868    94A      0.430463    95A      0.431869  
      96A      0.437232    97A      0.443774    98A      0.449340  
      99A      0.454169   100A      0.456890   101A      0.467459  
     102A      0.471431   103A      0.478559   104A      0.479965  
     105A      0.483457   106A      0.485982   107A      0.500634  
     108A      0.503370   109A      0.506661   110A      0.513495  
     111A      0.517567   112A      0.525022   113A      0.531776  
     114A      0.534750   115A      0.539705   116A      0.541713  
     117A      0.545022   118A      0.549024   119A      0.561432  
     120A      0.574476   121A      0.578282   122A      0.588472  
     123A      0.593321   124A      0.602004   125A      0.603412  
     126A      0.609752   127A      0.622868   128A      0.631311  
     129A      0.637291   130A      0.655657   131A      0.662197  
     132A      0.668498   133A      0.700485   134A      0.719214  
     135A      0.729823   136A      0.734142   137A      0.758077  
     138A      0.765713   139A      0.770654   140A      0.788464  
     141A      0.798711   142A      0.803251   143A      0.806314  
     144A      0.817754   145A      0.823609   146A      0.832252  
     147A      0.833843   148A      0.840218   149A      0.849805  
     150A      0.853061   151A      0.856878   152A      0.871205  
     153A      0.872672   154A      0.883027   155A      0.886315  
     156A      0.896069   157A      0.901895   158A      0.903482  
     159A      0.912752   160A      0.916973   161A      0.927488  
     162A      0.932840   163A      0.937144   164A      0.946014  
     165A      0.951386   166A      0.961797   167A      0.968434  
     168A      0.971065   169A      0.975436   170A      0.979086  
     171A      0.986548   172A      1.006785   173A      1.014973  
     174A      1.018773   175A      1.025147   176A      1.039518  
     177A      1.039863   178A      1.052263   179A      1.055810  
     180A      1.059839   181A      1.065274   182A      1.074563  
     183A      1.082109   184A      1.082855   185A      1.087141  
     186A      1.097593   187A      1.104877   188A      1.113568  
     189A      1.114968   190A      1.120821   191A      1.125259  
     192A      1.133343   193A      1.135538   194A      1.143175  
     195A      1.145861   196A      1.161093   197A      1.166311  
     198A      1.167696   199A      1.174606   200A      1.175518  
     201A      1.186515   202A      1.190563   203A      1.207538  
     204A      1.209641   205A      1.222796   206A      1.233801  
     207A      1.240510   208A      1.245566   209A      1.255730  
     210A      1.256968   211A      1.274831   212A      1.278528  
     213A      1.289000   214A      1.293885   215A      1.309522  
     216A      1.321842   217A      1.328960   218A      1.331042  
     219A      1.345621   220A      1.357341   221A      1.361903  
     222A      1.380505   223A      1.392959   224A      1.399227  
     225A      1.405109   226A      1.413849   227A      1.417898  
     228A      1.434784   229A      1.450752   230A      1.461404  
     231A      1.478993   232A      1.482968   233A      1.497718  
     234A      1.502231   235A      1.521683   236A      1.526623  
     237A      1.538778   238A      1.552444   239A      1.561609  
     240A      1.565748   241A      1.595270   242A      1.596761  
     243A      1.611595   244A      1.614159   245A      1.618246  
     246A      1.634536   247A      1.642693   248A      1.653463  
     249A      1.663796   250A      1.666668   251A      1.676609  
     252A      1.687504   253A      1.689806   254A      1.698213  
     255A      1.711524   256A      1.717880   257A      1.730032  
     258A      1.731107   259A      1.741434   260A      1.743516  
     261A      1.748850   262A      1.752382   263A      1.757817  
     264A      1.770859   265A      1.776787   266A      1.795530  
     267A      1.797430   268A      1.812593   269A      1.816800  
     270A      1.822055   271A      1.848388   272A      1.855489  
     273A      1.868717   274A      1.874147   275A      1.901704  
     276A      1.904102   277A      1.914021   278A      1.930377  
     279A      1.942066   280A      1.955769   281A      1.963607  
     282A      1.976835   283A      1.988759   284A      1.995755  
     285A      2.017713   286A      2.023650   287A      2.038662  
     288A      2.045419   289A      2.058332   290A      2.062118  
     291A      2.086868   292A      2.097060   293A      2.103692  
     294A      2.123429   295A      2.128435   296A      2.139936  
     297A      2.155340   298A      2.163864   299A      2.180971  
     300A      2.198800   301A      2.235210   302A      2.237991  
     303A      2.254780   304A      2.263989   305A      2.270086  
     306A      2.292961   307A      2.308722   308A      2.311566  
     309A      2.331846   310A      2.341213   311A      2.349680  
     312A      2.380249   313A      2.402323   314A      2.417402  
     315A      2.422316   316A      2.434894   317A      2.489674  
     318A      2.491938   319A      2.508807   320A      2.561866  
     321A      2.576907   322A      2.589999   323A      2.598414  
     324A      2.609654   325A      2.641431   326A      2.691334  
     327A      2.735926   328A      2.757640   329A      2.771441  
     330A      2.784739   331A      2.839502   332A      2.881207  
     333A      2.891343   334A      2.910763   335A      2.921123  
     336A      2.936831   337A      2.944444   338A      2.966645  
     339A      2.973431   340A      2.995515   341A      3.003099  
     342A      3.041128   343A      3.075512   344A      3.081407  
     345A      3.100901   346A      3.178909   347A      3.199348  
     348A      3.231285   349A      3.278223   350A      3.333989  
     351A      3.363136   352A      3.405371   353A      3.412376  
     354A      3.439253   355A      3.446154   356A      3.453447  
     357A      3.469859   358A      3.484623   359A      3.495812  
     360A      3.517864   361A      3.580520   362A      3.608298  
     363A      3.626591   364A      3.631089   365A      3.649621  
     366A      3.655763   367A      3.670223   368A      3.673456  
     369A      3.681272   370A      3.683408   371A      3.713486  
     372A      3.729293   373A      3.747181   374A      3.763167  
     375A      3.770163   376A      3.779753   377A      3.787638  
     378A      3.809089   379A      3.819397   380A      3.845591  
     381A      3.860960   382A      3.873048   383A      3.879099  
     384A      3.894605   385A      3.920212   386A      3.935727  
     387A      3.963711   388A      3.984274   389A      3.987071  
     390A      3.990951   391A      3.998008   392A      4.019815  
     393A      4.031117   394A      4.041621   395A      4.062143  
     396A      4.081663   397A      4.089511   398A      4.097594  
     399A      4.099793   400A      4.125726   401A      4.149038  
     402A      4.162312   403A      4.173909   404A      4.192118  
     405A      4.198688   406A      4.208500   407A      4.214433  
     408A      4.218927   409A      4.221329   410A      4.253054  
     411A      4.262528   412A      4.275323   413A      4.283389  
     414A      4.312646   415A      4.327742   416A      4.336543  
     417A      4.355702   418A      4.363757   419A      4.381090  
     420A      4.420803   421A      4.455670   422A      4.477462  
     423A      4.485711   424A      4.508021   425A      4.513723  
     426A      4.545434   427A      4.553321   428A      4.570257  
     429A      4.576051   430A      4.585816   431A      4.608076  
     432A      4.630806   433A      4.645046   434A      4.652064  
     435A      4.679458   436A      4.709206   437A      4.717723  
     438A      4.738327   439A      4.750467   440A      4.765526  
     441A      4.783549   442A      4.804888   443A      4.835331  
     444A      4.852209   445A      4.869024   446A      4.881569  
     447A      4.885174   448A      4.893627   449A      4.917369  
     450A      4.919507   451A      4.939397   452A      4.955712  
     453A      4.983557   454A      4.991581   455A      5.024973  
     456A      5.054576   457A      5.059419   458A      5.071776  
     459A      5.100744   460A      5.126055   461A      5.132127  
     462A      5.142936   463A      5.159231   464A      5.175503  
     465A      5.176887   466A      5.184487   467A      5.199340  
     468A      5.237210   469A      5.255723   470A      5.260251  
     471A      5.290161   472A      5.312575   473A      5.348869  
     474A      5.368956   475A      5.391137   476A      5.394336  
     477A      5.419854   478A      5.433855   479A      5.448178  
     480A      5.476730   481A      5.492904   482A      5.499677  
     483A      5.538855   484A      5.562974   485A      5.569061  
     486A      5.595834   487A      5.608553   488A      5.621140  
     489A      5.628392   490A      5.666671   491A      5.719113  
     492A      5.737342   493A      5.744544   494A      5.755605  
     495A      5.814620   496A      5.843754   497A      5.847127  
     498A      5.894220   499A      5.997533   500A      6.006946  
     501A      6.048853   502A      6.065557   503A      6.086690  
     504A      6.105674   505A      6.165859   506A      6.193113  
     507A      6.211909   508A      6.237111   509A      6.245668  
     510A      6.273785   511A      6.289064   512A      6.327319  
     513A      6.393748   514A      6.412738   515A      6.679192  
     516A      6.687178   517A      6.715151   518A      6.730514  
     519A      6.827002   520A      6.835364   521A      6.855135  
     522A      6.866685   523A      6.941965   524A      6.955934  
     525A      6.977258   526A      7.063965   527A      7.114284  
     528A      7.145901   529A      7.342017   530A      7.353579  
     531A      7.375124   532A      7.381695   533A      7.453008  
     534A      7.494721   535A      7.530527   536A      7.556462  
     537A      7.647825   538A      7.711062   539A      7.807667  
     540A      7.848139   541A      7.915002   542A      7.967481  
     543A      8.229912   544A      8.257891   545A      8.593702  
     546A      8.616251   547A     15.893506   548A     16.144061  
     549A     17.980928   550A     18.064633   551A     18.503530  
     552A     18.967659  

    Final Occupation by Irrep:
              A 
    DOCC [    26 ]
    NA   [    26 ]
    NB   [    26 ]

  @DF-RHF Final Energy:  -308.29022155019567

   => Energetics <=

    Nuclear Repulsion Energy =            237.8830201339281416
    One-Electron Energy =                -891.7982380623325298
    Two-Electron Energy =                 345.6249963782087775
    Total Energy =                       -308.2902215501956675

Computation Completed


Properties will be evaluated at   0.000000,   0.000000,   0.000000 [a0]

Properties computed using the SCF density matrix


 Multipole Moments:

 ------------------------------------------------------------------------------------
     Multipole            Electronic (a.u.)      Nuclear  (a.u.)        Total (a.u.)
 ------------------------------------------------------------------------------------

 L = 1.  Multiply by 2.5417464519 to convert [e a0] to [Debye]
 Dipole X            :         -1.3262462            0.0000057           -1.3262405
 Dipole Y            :         -0.1652035           -0.0000000           -0.1652035
 Dipole Z            :          0.4548351            0.0000076            0.4548426
 Magnitude           :                                                    1.4117676

 ------------------------------------------------------------------------------------

*** tstop() called on Moses-MBP.lan at Thu Feb 27 18:39:10 2025
Module time:
	user time   =      85.02 seconds =       1.42 minutes
	system time =       9.16 seconds =       0.15 minutes
	total time  =         11 seconds =       0.18 minutes
Total time:
	user time   =     267.39 seconds =       4.46 minutes
	system time =      29.85 seconds =       0.50 minutes
	total time  =        299 seconds =       4.98 minutes

*** tstart() called on Moses-MBP.lan
*** at Thu Feb 27 18:39:10 2025


  //>>>>>>>>>>>>>>>>>>>>>>>>>>>>>>>>>>>//
  //               DFMP2               //
  //<<<<<<<<<<<<<<<<<<<<<<<<<<<<<<<<<<<//

   => Loading Basis Set <=

    Name: (AUG-CC-PVTZ AUX)
    Role: RIFIT
    Keyword: DF_BASIS_MP2
    atoms 1-2, 10-11 entry C          line   148 file /Users/moseschung/miniconda3/envs/psi4/share/psi4/basis/aug-cc-pvtz-ri.gbs 
    atoms 3, 12      entry O          line   264 file /Users/moseschung/miniconda3/envs/psi4/share/psi4/basis/aug-cc-pvtz-ri.gbs 
    atoms 4-9, 13-18 entry H          line    30 file /Users/moseschung/miniconda3/envs/psi4/share/psi4/basis/aug-cc-pvtz-ri.gbs 

	 --------------------------------------------------------
	                          DF-MP2                         
	      2nd-Order Density-Fitted Moller-Plesset Theory     
	              RMP2 Wavefunction,  10 Threads             
	                                                         
	        Rob Parrish, Justin Turney, Andy Simmonett,      
	           Ed Hohenstein, and C. David Sherrill          
	 --------------------------------------------------------

   => Auxiliary Basis Set <=

  Basis Set: (AUG-CC-PVTZ AUX)
    Blend: AUG-CC-PVTZ-RI
    Number of shells: 336
    Number of basis functions: 1188
    Number of Cartesian functions: 1476
    Spherical Harmonics?: true
    Max angular momentum: 4

	 --------------------------------------------------------
	                 NBF =   552, NAUX =  1188
	 --------------------------------------------------------
	   CLASS    FOCC     OCC    AOCC    AVIR     VIR    FVIR
	   PAIRS       0      26      26     526     526       0
	 --------------------------------------------------------

	-----------------------------------------------------------
	 ==================> DF-MP2 Energies <==================== 
	-----------------------------------------------------------
	 Reference Energy          =    -308.2902215501956675 [Eh]
	 Singles Energy            =      -0.0000000000000000 [Eh]
	 Same-Spin Energy          =      -0.2977376999067943 [Eh]
	 Opposite-Spin Energy      =      -1.0374819911588635 [Eh]
	 Correlation Energy        =      -1.3352196910656580 [Eh]
	 Total Energy              =    -309.6254412412613419 [Eh]
	-----------------------------------------------------------
	 ================> DF-SCS-MP2 Energies <================== 
	-----------------------------------------------------------
	 SCS Same-Spin Scale       =       0.3333333333333333 [-]
	 SCS Opposite-Spin Scale   =       1.2000000000000000 [-]
	 SCS Same-Spin Energy      =      -0.0992458999689314 [Eh]
	 SCS Opposite-Spin Energy  =      -1.2449783893906361 [Eh]
	 SCS Correlation Energy    =      -1.3442242893595675 [Eh]
	 SCS Total Energy          =    -309.6344458395552124 [Eh]
	-----------------------------------------------------------


*** tstop() called on Moses-MBP.lan at Thu Feb 27 18:39:15 2025
Module time:
	user time   =      31.17 seconds =       0.52 minutes
	system time =       3.18 seconds =       0.05 minutes
	total time  =          5 seconds =       0.08 minutes
Total time:
	user time   =     298.57 seconds =       4.98 minutes
	system time =      33.03 seconds =       0.55 minutes
	total time  =        304 seconds =       5.07 minutes

    Psi4 stopped on: Thursday, 27 February 2025 06:39PM
    Psi4 wall time for execution: 0:00:15.95


  //>>>>>>>>>>>>>>>>>>>>>>>>>>>>>>>>>>>//
  //          ManyBody Results         //
  //<<<<<<<<<<<<<<<<<<<<<<<<<<<<<<<<<<<//


   ==> N-Body: Counterpoise Corrected (CP) energies <==

        n-Body     Total Energy            Interaction Energy                          N-body Contribution to Interaction Energy
                   [Eh]                    [Eh]                  [kcal/mol]            [Eh]                  [kcal/mol]
             1  N/A                         0.000000000000        0.000000000000        0.000000000000        0.000000000000
  FULL/RTN   2  N/A                        -0.002341305847       -1.469191600099       -0.002341305847       -1.469191600099


    Psi4 stopped on: Thursday, 27 February 2025 06:39PM
    Psi4 wall time for execution: 0:05:05.38

*** Psi4 exiting successfully. Buy a developer a beer!
