
    -----------------------------------------------------------------------
          Psi4: An Open-Source Ab Initio Electronic Structure Package
                               Psi4 1.9.1 release

                         Git: Rev {} zzzzzzz 


    D. G. A. Smith, L. A. Burns, A. C. Simmonett, R. M. Parrish,
    M. C. Schieber, R. Galvelis, P. Kraus, H. Kruse, R. Di Remigio,
    A. Alenaizan, A. M. James, S. Lehtola, J. P. Misiewicz, M. Scheurer,
    R. A. Shaw, J. B. Schriber, Y. Xie, Z. L. Glick, D. A. Sirianni,
    J. S. O'Brien, J. M. Waldrop, A. Kumar, E. G. Hohenstein,
    B. P. Pritchard, B. R. Brooks, H. F. Schaefer III, A. Yu. Sokolov,
    K. Patkowski, A. E. DePrince III, U. Bozkaya, R. A. King,
    F. A. Evangelista, J. M. Turney, T. D. Crawford, C. D. Sherrill,
    J. Chem. Phys. 152(18) 184108 (2020). https://doi.org/10.1063/5.0006002

                            Additional Code Authors
    E. T. Seidl, C. L. Janssen, E. F. Valeev, M. L. Leininger,
    J. F. Gonthier, R. M. Richard, H. R. McAlexander, M. Saitow, X. Wang,
    P. Verma, M. H. Lechner, A. Jiang, S. Behnle, A. G. Heide,
    M. F. Herbst, and D. L. Poole

             Previous Authors, Complete List of Code Contributors,
                       and Citations for Specific Modules
    https://github.com/psi4/psi4/blob/master/codemeta.json
    https://github.com/psi4/psi4/graphs/contributors
    http://psicode.org/psi4manual/master/introduction.html#citing-psifour

    -----------------------------------------------------------------------


    Psi4 started on: Thursday, 27 February 2025 05:11PM

    Process ID: 30269
    Host:       Moses-MBP.lan
    PSIDATADIR: /Users/moseschung/miniconda3/envs/psi4/share/psi4
    Memory:     500.0 MiB
    Threads:    10
    
  ==> Input File <==

--------------------------------------------------------------------------
MEMORY 10 GB

molecule dimer {
0 1
C   -1.996943   0.956004   0.584861
C   -2.232015  -0.351656  -0.132587
O   -1.109857  -0.777828  -0.860710
H   -0.364786  -0.863805  -0.245421
H   -2.886970   1.273319   1.133176
H   -1.732546   1.741938  -0.126468
H   -1.175299   0.859544   1.300322
H   -3.048917  -0.247609  -0.853104
H   -2.550425  -1.120063   0.588861
--
0 1
C    1.740731   1.156265  -0.426737
C    2.240365  -0.208929  -0.050019
O    1.262325  -0.825552   0.776306
H    1.580138  -1.687319   1.054270
H    2.468113   1.668618  -1.057893
H    1.571017   1.761794   0.465829
H    0.799038   1.079626  -0.974589
H    3.194372  -0.136309   0.487701
H    2.413697  -0.812794  -0.950564

units ang
no_reorient
no_com
symmetry c1
}

set {
basis        aug-cc-pVTZ
scf_type     df
}

energy("mp2", bsse_type="cp")
--------------------------------------------------------------------------

  Memory set to   9.313 GiB by Python driver.

Scratch directory: /tmp/

  //>>>>>>>>>>>>>>>>>>>>>>>>>>>>>>>>>>>>>//
  // ManyBody Setup: N-Body Levels [1, 2]//
  //<<<<<<<<<<<<<<<<<<<<<<<<<<<<<<<<<<<<<//

        Number of 1-body computations:     2
        Number of 2-body computations:     1

    -----------------------------------------------------------------------
          Psi4: An Open-Source Ab Initio Electronic Structure Package
                               Psi4 1.9.1 release

                         Git: Rev {} zzzzzzz 


    D. G. A. Smith, L. A. Burns, A. C. Simmonett, R. M. Parrish,
    M. C. Schieber, R. Galvelis, P. Kraus, H. Kruse, R. Di Remigio,
    A. Alenaizan, A. M. James, S. Lehtola, J. P. Misiewicz, M. Scheurer,
    R. A. Shaw, J. B. Schriber, Y. Xie, Z. L. Glick, D. A. Sirianni,
    J. S. O'Brien, J. M. Waldrop, A. Kumar, E. G. Hohenstein,
    B. P. Pritchard, B. R. Brooks, H. F. Schaefer III, A. Yu. Sokolov,
    K. Patkowski, A. E. DePrince III, U. Bozkaya, R. A. King,
    F. A. Evangelista, J. M. Turney, T. D. Crawford, C. D. Sherrill,
    J. Chem. Phys. 152(18) 184108 (2020). https://doi.org/10.1063/5.0006002

                            Additional Code Authors
    E. T. Seidl, C. L. Janssen, E. F. Valeev, M. L. Leininger,
    J. F. Gonthier, R. M. Richard, H. R. McAlexander, M. Saitow, X. Wang,
    P. Verma, M. H. Lechner, A. Jiang, S. Behnle, A. G. Heide,
    M. F. Herbst, and D. L. Poole

             Previous Authors, Complete List of Code Contributors,
                       and Citations for Specific Modules
    https://github.com/psi4/psi4/blob/master/codemeta.json
    https://github.com/psi4/psi4/graphs/contributors
    http://psicode.org/psi4manual/master/introduction.html#citing-psifour

    -----------------------------------------------------------------------


    Psi4 started on: Thursday, 27 February 2025 05:11PM

    Process ID: 30269
    Host:       Moses-MBP.lan
    PSIDATADIR: /Users/moseschung/miniconda3/envs/psi4/share/psi4
    Memory:     9.3 GiB
    Threads:    10
    
  ==> Input QCSchema <==

--------------------------------------------------------------------------
{'driver': 'energy',
 'extras': {'psiapi': True, 'wfn_qcvars_only': True},
 'id': None,
 'keywords': {'SCF_TYPE': 'DF', 'function_kwargs': {}},
 'model': {'basis': 'aug-cc-pvtz', 'method': 'mp2'},
 'molecule': {'atom_labels': ['', '', '', '', '', '', '', '', '', '', '', '', '', '', '', '', '', ''],
              'atomic_numbers': [6, 6, 8, 1, 1, 1, 1, 1, 1, 6, 6, 8, 1, 1, 1, 1, 1, 1],
              'extras': {},
              'fix_com': True,
              'fix_orientation': True,
              'fix_symmetry': 'c1',
              'fragment_charges': [0.0, 0.0],
              'fragment_multiplicities': [1, 1],
              'fragments': [[0, 1, 2, 3, 4, 5, 6, 7, 8], [9, 10, 11, 12, 13, 14, 15, 16, 17]],
              'geometry': [-3.7736753581501317, 1.8065857348421854, 1.1052271114613907, -4.2178970579137545,
                           -0.6645335303739981, -0.2505531177960771, -2.097325768422249, -1.4698818927126112,
                           -1.6265061734428072, -0.6893456344012593, -1.6323548758010993, -0.46377847543598566,
                           -5.455582632412986, 2.4062241803418365, 2.1413922919418, -3.2740374397574583,
                           3.2917857475277583, -0.2389898836344006, -2.22099322552446, 1.6243027527805234,
                           2.457252454907574, -5.761618109252505, -0.46791319619848737, -1.612132916532575,
                           -4.819604753520782, -2.1166123132586714, 1.1127860159632221, 3.2895048480943307,
                           2.1850241784524957, -0.8064160575994972, 4.233676271061327, -0.3948185896657786,
                           -0.09452221106927511, 2.385448531318553, -1.560067182323961, 1.4670057295496648,
                           2.9860280604286817, -3.188570796281377, 1.9922815622864245, 4.664057616682096,
                           3.1532310280091895, -1.9991280400389582, 2.968791868438381, 3.329308149474849,
                           0.8802892312958946, 1.5099629838335722, 2.040197457923533, -1.8417062948838194,
                           6.0364882228309735, -0.25758667843503114, 0.9216213211119082, 4.561226279839183,
                           -1.53595805641537, -1.796305624719695],
              'mass_numbers': [12, 12, 16, 1, 1, 1, 1, 1, 1, 12, 12, 16, 1, 1, 1, 1, 1, 1],
              'masses': [12.0, 12.0, 15.99491461957, 1.00782503223, 1.00782503223, 1.00782503223, 1.00782503223,
                         1.00782503223, 1.00782503223, 12.0, 12.0, 15.99491461957, 1.00782503223, 1.00782503223,
                         1.00782503223, 1.00782503223, 1.00782503223, 1.00782503223],
              'molecular_charge': 0.0,
              'molecular_multiplicity': 1,
              'name': 'dimer',
              'provenance': {'creator': 'QCElemental',
                             'routine': 'qcelemental.molparse.from_string',
                             'version': '0.29.0'},
              'real': [False, False, False, False, False, False, False, False, False, True, True, True, True, True,
                       True, True, True, True],
              'schema_name': 'qcschema_molecule',
              'schema_version': 2,
              'symbols': ['C', 'C', 'O', 'H', 'H', 'H', 'H', 'H', 'H', 'C', 'C', 'O', 'H', 'H', 'H', 'H', 'H', 'H'],
              'validated': True},
 'protocols': {'stdout': True},
 'provenance': {'creator': 'QCElemental', 'routine': 'qcelemental.models.results', 'version': '0.29.0'},
 'schema_name': 'qcschema_input',
 'schema_version': 1}
--------------------------------------------------------------------------

Scratch directory: /tmp/
   => Libint2 <=

    Primary   basis highest AM E, G, H:  6, 6, 3
    Auxiliary basis highest AM E, G, H:  7, 7, 4
    Onebody   basis highest AM E, G, H:  -, -, -
    Solid Harmonics ordering:            Gaussian

*** tstart() called on Moses-MBP.lan
*** at Thu Feb 27 17:11:24 2025

   => Loading Basis Set <=

    Name: AUG-CC-PVTZ
    Role: ORBITAL
    Keyword: BASIS
    atoms 1-2, 10-11 entry C          line   239 file /Users/moseschung/miniconda3/envs/psi4/share/psi4/basis/aug-cc-pvtz.gbs 
    atoms 3, 12      entry O          line   331 file /Users/moseschung/miniconda3/envs/psi4/share/psi4/basis/aug-cc-pvtz.gbs 
    atoms 4-9, 13-18 entry H          line    40 file /Users/moseschung/miniconda3/envs/psi4/share/psi4/basis/aug-cc-pvtz.gbs 


         ---------------------------------------------------------
                                   SCF
               by Justin Turney, Rob Parrish, Andy Simmonett
                          and Daniel G. A. Smith
                              RHF Reference
                       10 Threads,   9536 MiB Core
         ---------------------------------------------------------

  ==> Geometry <==

    Molecular point group: c1
    Full point group: C1

    Geometry (in Bohr), charge = 0, multiplicity = 1:

       Center              X                  Y                   Z               Mass       
    ------------   -----------------  -----------------  -----------------  -----------------
      Gh(C)          -3.773675358150     1.806585734842     1.105227111461    12.000000000000
      Gh(C)          -4.217897057914    -0.664533530374    -0.250553117796    12.000000000000
      Gh(O)          -2.097325768422    -1.469881892713    -1.626506173443    15.994914619570
      Gh(H)          -0.689345634401    -1.632354875801    -0.463778475436     1.007825032230
      Gh(H)          -5.455582632413     2.406224180342     2.141392291942     1.007825032230
      Gh(H)          -3.274037439757     3.291785747528    -0.238989883634     1.007825032230
      Gh(H)          -2.220993225524     1.624302752781     2.457252454908     1.007825032230
      Gh(H)          -5.761618109253    -0.467913196198    -1.612132916533     1.007825032230
      Gh(H)          -4.819604753521    -2.116612313259     1.112786015963     1.007825032230
         C            3.289504848094     2.185024178452    -0.806416057599    12.000000000000
         C            4.233676271061    -0.394818589666    -0.094522211069    12.000000000000
         O            2.385448531319    -1.560067182324     1.467005729550    15.994914619570
         H            2.986028060429    -3.188570796281     1.992281562286     1.007825032230
         H            4.664057616682     3.153231028009    -1.999128040039     1.007825032230
         H            2.968791868438     3.329308149475     0.880289231296     1.007825032230
         H            1.509962983834     2.040197457924    -1.841706294884     1.007825032230
         H            6.036488222831    -0.257586678435     0.921621321112     1.007825032230
         H            4.561226279839    -1.535958056415    -1.796305624720     1.007825032230

  Running in c1 symmetry.

  Rotational constants: A =      0.16143  B =      0.04915  C =      0.04506 [cm^-1]
  Rotational constants: A =   4839.58610  B =   1473.56070  C =   1350.79825 [MHz]
  Nuclear repulsion =   82.080519191761724

  Charge       = 0
  Multiplicity = 1
  Electrons    = 26
  Nalpha       = 13
  Nbeta        = 13

  ==> Algorithm <==

  SCF Algorithm Type is DF.
  DIIS enabled.
  MOM disabled.
  Fractional occupation disabled.
  Guess Type is SAD.
  Energy threshold   = 1.00e-08
  Density threshold  = 1.00e-08
  Integral threshold = 1.00e-12

  ==> Primary Basis <==

  Basis Set: AUG-CC-PVTZ
    Blend: AUG-CC-PVTZ
    Number of shells: 192
    Number of basis functions: 552
    Number of Cartesian functions: 630
    Spherical Harmonics?: true
    Max angular momentum: 3

   => Loading Basis Set <=

    Name: (AUG-CC-PVTZ AUX)
    Role: JKFIT
    Keyword: DF_BASIS_SCF
    atoms 1-2, 10-11 entry C          line   162 file /Users/moseschung/miniconda3/envs/psi4/share/psi4/basis/aug-cc-pvtz-jkfit.gbs 
    atoms 3, 12      entry O          line   286 file /Users/moseschung/miniconda3/envs/psi4/share/psi4/basis/aug-cc-pvtz-jkfit.gbs 
    atoms 4-9, 13-18 entry H          line    70 file /Users/moseschung/miniconda3/envs/psi4/share/psi4/basis/aug-cc-pvtz-jkfit.gbs 

  ==> Integral Setup <==

  DFHelper Memory: AOs need 2.640 GiB; user supplied 6.985 GiB. 
  Using in-core AOs.

  ==> MemDFJK: Density-Fitted J/K Matrices <==

    J tasked:                   Yes
    K tasked:                   Yes
    wK tasked:                   No
    OpenMP threads:              10
    Memory [MiB]:              7152
    Algorithm:                 Core
    Schwarz Cutoff:           1E-12
    Mask sparsity (%):       4.6399
    Fitting Condition:        1E-10

   => Auxiliary Basis Set <=

  Basis Set: (AUG-CC-PVTZ AUX)
    Blend: AUG-CC-PVTZ-JKFIT
    Number of shells: 348
    Number of basis functions: 1176
    Number of Cartesian functions: 1446
    Spherical Harmonics?: true
    Max angular momentum: 4

  Minimum eigenvalue in the overlap matrix is 1.0144923457E-05.
  Reciprocal condition number of the overlap matrix is 5.3720427096E-07.
    Using symmetric orthogonalization.

  ==> Pre-Iterations <==

  SCF Guess: Superposition of Atomic Densities via on-the-fly atomic UHF (no occupation information).

   -------------------------
    Irrep   Nso     Nmo    
   -------------------------
     A        552     552 
   -------------------------
    Total     552     552
   -------------------------

  ==> Iterations <==

                           Total Energy        Delta E     RMS |[F,P]|

   @DF-RHF iter SAD:  -153.43372561823799   -1.53434e+02   0.00000e+00 
   @DF-RHF iter   1:  -153.99905220068084   -5.65327e-01   9.59577e-04 DIIS/ADIIS
   @DF-RHF iter   2:  -154.11088825500289   -1.11836e-01   5.34964e-04 DIIS/ADIIS
   @DF-RHF iter   3:  -154.14381839433725   -3.29301e-02   8.48129e-05 DIIS
   @DF-RHF iter   4:  -154.14541926871306   -1.60087e-03   3.26279e-05 DIIS
   @DF-RHF iter   5:  -154.14560670436680   -1.87436e-04   5.76691e-06 DIIS
   @DF-RHF iter   6:  -154.14561631897686   -9.61461e-06   1.27827e-06 DIIS
   @DF-RHF iter   7:  -154.14561687464689   -5.55670e-07   3.92197e-07 DIIS
   @DF-RHF iter   8:  -154.14561691877199   -4.41251e-08   1.05695e-07 DIIS
   @DF-RHF iter   9:  -154.14561692302226   -4.25027e-09   2.55492e-08 DIIS
   @DF-RHF iter  10:  -154.14561692329212   -2.69864e-10   4.86183e-09 DIIS
  Energy and wave function converged.


  ==> Post-Iterations <==

    Orbital Energies [Eh]
    ---------------------

    Doubly Occupied:                                                      

       1A    -20.554637     2A    -11.274093     3A    -11.211583  
       4A     -1.357517     5A     -1.014795     6A     -0.833498  
       7A     -0.700295     8A     -0.645513     9A     -0.571960  
      10A     -0.533486    11A     -0.524653    12A     -0.489704  
      13A     -0.440832  

    Virtual:                                                              

      14A      0.025645    15A      0.032781    16A      0.036297  
      17A      0.038922    18A      0.051374    19A      0.051972  
      20A      0.053510    21A      0.062317    22A      0.069207  
      23A      0.074444    24A      0.081150    25A      0.085485  
      26A      0.102929    27A      0.109891    28A      0.117150  
      29A      0.119426    30A      0.122866    31A      0.124457  
      32A      0.135643    33A      0.137838    34A      0.140810  
      35A      0.142799    36A      0.154699    37A      0.158786  
      38A      0.164411    39A      0.173675    40A      0.176197  
      41A      0.182661    42A      0.197293    43A      0.199589  
      44A      0.208731    45A      0.218903    46A      0.227872  
      47A      0.242839    48A      0.248048    49A      0.258012  
      50A      0.266764    51A      0.279113    52A      0.280902  
      53A      0.293807    54A      0.296836    55A      0.303141  
      56A      0.308599    57A      0.312058    58A      0.313680  
      59A      0.318954    60A      0.324683    61A      0.328493  
      62A      0.334520    63A      0.338564    64A      0.346820  
      65A      0.351438    66A      0.353553    67A      0.364175  
      68A      0.367965    69A      0.369712    70A      0.373132  
      71A      0.393046    72A      0.395292    73A      0.402181  
      74A      0.402966    75A      0.412448    76A      0.414490  
      77A      0.423756    78A      0.424381    79A      0.428036  
      80A      0.428960    81A      0.439022    82A      0.442309  
      83A      0.448243    84A      0.456324    85A      0.465087  
      86A      0.470831    87A      0.478370    88A      0.485378  
      89A      0.489369    90A      0.490900    91A      0.500335  
      92A      0.500628    93A      0.507438    94A      0.513640  
      95A      0.519373    96A      0.523962    97A      0.530109  
      98A      0.535079    99A      0.538956   100A      0.551962  
     101A      0.562647   102A      0.572783   103A      0.574792  
     104A      0.579391   105A      0.581331   106A      0.586460  
     107A      0.602264   108A      0.611504   109A      0.617025  
     110A      0.624364   111A      0.630156   112A      0.637556  
     113A      0.641063   114A      0.652326   115A      0.657821  
     116A      0.669274   117A      0.680042   118A      0.682850  
     119A      0.685487   120A      0.697292   121A      0.708624  
     122A      0.719297   123A      0.732922   124A      0.736882  
     125A      0.757241   126A      0.761345   127A      0.775745  
     128A      0.798289   129A      0.804199   130A      0.805604  
     131A      0.823989   132A      0.837330   133A      0.846020  
     134A      0.853868   135A      0.866329   136A      0.869056  
     137A      0.880279   138A      0.888933   139A      0.896767  
     140A      0.913613   141A      0.918960   142A      0.930977  
     143A      0.933508   144A      0.935536   145A      0.941558  
     146A      0.955965   147A      0.967530   148A      0.971247  
     149A      0.981200   150A      0.985227   151A      0.988961  
     152A      0.996360   153A      1.000408   154A      1.015233  
     155A      1.028167   156A      1.033395   157A      1.037827  
     158A      1.043536   159A      1.057084   160A      1.058947  
     161A      1.061296   162A      1.074917   163A      1.082031  
     164A      1.087089   165A      1.093365   166A      1.102118  
     167A      1.108470   168A      1.112927   169A      1.116259  
     170A      1.120630   171A      1.129663   172A      1.132986  
     173A      1.139660   174A      1.148160   175A      1.151350  
     176A      1.156322   177A      1.170802   178A      1.174538  
     179A      1.187004   180A      1.191914   181A      1.204739  
     182A      1.216327   183A      1.219216   184A      1.223621  
     185A      1.231360   186A      1.239266   187A      1.249382  
     188A      1.251927   189A      1.257880   190A      1.265193  
     191A      1.273598   192A      1.276714   193A      1.288979  
     194A      1.298282   195A      1.311720   196A      1.314438  
     197A      1.327294   198A      1.331669   199A      1.350793  
     200A      1.353397   201A      1.362849   202A      1.379467  
     203A      1.382155   204A      1.393783   205A      1.400978  
     206A      1.407028   207A      1.419917   208A      1.420634  
     209A      1.432583   210A      1.443968   211A      1.453520  
     212A      1.460771   213A      1.469413   214A      1.478461  
     215A      1.488028   216A      1.499553   217A      1.505089  
     218A      1.518363   219A      1.537034   220A      1.540018  
     221A      1.550318   222A      1.556546   223A      1.568195  
     224A      1.571051   225A      1.589790   226A      1.598051  
     227A      1.607127   228A      1.616111   229A      1.627502  
     230A      1.639207   231A      1.648265   232A      1.654015  
     233A      1.675015   234A      1.678885   235A      1.686110  
     236A      1.694951   237A      1.721603   238A      1.731734  
     239A      1.735773   240A      1.740153   241A      1.746174  
     242A      1.755296   243A      1.766666   244A      1.776564  
     245A      1.798286   246A      1.806363   247A      1.814956  
     248A      1.822330   249A      1.836210   250A      1.839740  
     251A      1.860155   252A      1.878412   253A      1.887042  
     254A      1.908369   255A      1.909105   256A      1.920325  
     257A      1.940038   258A      1.945480   259A      1.953448  
     260A      1.965935   261A      1.986804   262A      1.992318  
     263A      1.993265   264A      2.018892   265A      2.020322  
     266A      2.031595   267A      2.043030   268A      2.058880  
     269A      2.066711   270A      2.091759   271A      2.094912  
     272A      2.105556   273A      2.110663   274A      2.120352  
     275A      2.124031   276A      2.135264   277A      2.153599  
     278A      2.166800   279A      2.190451   280A      2.196233  
     281A      2.201923   282A      2.222418   283A      2.237019  
     284A      2.245915   285A      2.261960   286A      2.277311  
     287A      2.284501   288A      2.303374   289A      2.305664  
     290A      2.319934   291A      2.334026   292A      2.346977  
     293A      2.374875   294A      2.399887   295A      2.409366  
     296A      2.440008   297A      2.442150   298A      2.464826  
     299A      2.486437   300A      2.491687   301A      2.518172  
     302A      2.541685   303A      2.554469   304A      2.565877  
     305A      2.604258   306A      2.621717   307A      2.648219  
     308A      2.663495   309A      2.701873   310A      2.710061  
     311A      2.733862   312A      2.747724   313A      2.753949  
     314A      2.791046   315A      2.794016   316A      2.815510  
     317A      2.828100   318A      2.844335   319A      2.862878  
     320A      2.891659   321A      2.922917   322A      2.947152  
     323A      2.975855   324A      2.990474   325A      3.003863  
     326A      3.010082   327A      3.030367   328A      3.064215  
     329A      3.091763   330A      3.115132   331A      3.143542  
     332A      3.166627   333A      3.178580   334A      3.209354  
     335A      3.278387   336A      3.305013   337A      3.326129  
     338A      3.408423   339A      3.440565   340A      3.468140  
     341A      3.474674   342A      3.504748   343A      3.523268  
     344A      3.560039   345A      3.576458   346A      3.591827  
     347A      3.623423   348A      3.650655   349A      3.665271  
     350A      3.666920   351A      3.692836   352A      3.709170  
     353A      3.718554   354A      3.737804   355A      3.779592  
     356A      3.790772   357A      3.793616   358A      3.838427  
     359A      3.861815   360A      3.881611   361A      3.890881  
     362A      3.929805   363A      3.961250   364A      3.976485  
     365A      4.005523   366A      4.023747   367A      4.036228  
     368A      4.047859   369A      4.065456   370A      4.101283  
     371A      4.114894   372A      4.129240   373A      4.145536  
     374A      4.157099   375A      4.165176   376A      4.176599  
     377A      4.188278   378A      4.211170   379A      4.216443  
     380A      4.217969   381A      4.247471   382A      4.268743  
     383A      4.283046   384A      4.286027   385A      4.317290  
     386A      4.328643   387A      4.342069   388A      4.358827  
     389A      4.383869   390A      4.389745   391A      4.402583  
     392A      4.416692   393A      4.447977   394A      4.482635  
     395A      4.492820   396A      4.508966   397A      4.510457  
     398A      4.529220   399A      4.544813   400A      4.561662  
     401A      4.578682   402A      4.594325   403A      4.623385  
     404A      4.630872   405A      4.650758   406A      4.674206  
     407A      4.686130   408A      4.697498   409A      4.706515  
     410A      4.722996   411A      4.736971   412A      4.745140  
     413A      4.767642   414A      4.805086   415A      4.810842  
     416A      4.824829   417A      4.839116   418A      4.860159  
     419A      4.864111   420A      4.895160   421A      4.908914  
     422A      4.915375   423A      4.929548   424A      4.944229  
     425A      4.954397   426A      4.978669   427A      5.000531  
     428A      5.033098   429A      5.046408   430A      5.059580  
     431A      5.078728   432A      5.082368   433A      5.099329  
     434A      5.118720   435A      5.149401   436A      5.163231  
     437A      5.176371   438A      5.201960   439A      5.205172  
     440A      5.230652   441A      5.252414   442A      5.261220  
     443A      5.278559   444A      5.284399   445A      5.313957  
     446A      5.325496   447A      5.356264   448A      5.371207  
     449A      5.377669   450A      5.404894   451A      5.429173  
     452A      5.443355   453A      5.464956   454A      5.466271  
     455A      5.497778   456A      5.527154   457A      5.542496  
     458A      5.549892   459A      5.567695   460A      5.573687  
     461A      5.586892   462A      5.603751   463A      5.632508  
     464A      5.644064   465A      5.653470   466A      5.674918  
     467A      5.686279   468A      5.726833   469A      5.744357  
     470A      5.756700   471A      5.778708   472A      5.806536  
     473A      5.832138   474A      5.842906   475A      5.869722  
     476A      5.887672   477A      5.916273   478A      5.971467  
     479A      6.013731   480A      6.035844   481A      6.062388  
     482A      6.110543   483A      6.140709   484A      6.155495  
     485A      6.174062   486A      6.203139   487A      6.226388  
     488A      6.231254   489A      6.278359   490A      6.304098  
     491A      6.347346   492A      6.390245   493A      6.422301  
     494A      6.494780   495A      6.570392   496A      6.727986  
     497A      6.755109   498A      6.794709   499A      6.854158  
     500A      6.882211   501A      6.895122   502A      6.999358  
     503A      7.030659   504A      7.048896   505A      7.094806  
     506A      7.136728   507A      7.192669   508A      7.203719  
     509A      7.313710   510A      7.360780   511A      7.397711  
     512A      7.453344   513A      7.559957   514A      7.586529  
     515A      7.675534   516A      7.786330   517A      7.832228  
     518A      7.857813   519A      7.873579   520A      7.889980  
     521A      7.926798   522A      7.974093   523A      8.018312  
     524A      8.101269   525A      8.187844   526A      8.214240  
     527A      8.283189   528A      8.334640   529A      8.379410  
     530A      8.401343   531A      8.451443   532A      8.661974  
     533A      8.708733   534A      8.947137   535A      9.066786  
     536A     10.025350   537A     10.142424   538A     10.319663  
     539A     10.464708   540A     10.702996   541A     10.772286  
     542A     11.136533   543A     12.107420   544A     12.483214  
     545A     13.349798   546A     14.461206   547A     16.462871  
     548A     18.082267   549A     18.530548   550A     52.823203  
     551A     54.455500   552A     68.005721  

    Final Occupation by Irrep:
              A 
    DOCC [    13 ]
    NA   [    13 ]
    NB   [    13 ]

  @DF-RHF Final Energy:  -154.14561692329212

   => Energetics <=

    Nuclear Repulsion Energy =             82.0805191917617236
    One-Electron Energy =                -372.1471406105882807
    Two-Electron Energy =                 135.9210044955344472
    Total Energy =                       -154.1456169232921241

Computation Completed


Properties will be evaluated at   0.000000,   0.000000,   0.000000 [a0]

Properties computed using the SCF density matrix


 Multipole Moments:

 ------------------------------------------------------------------------------------
     Multipole            Electronic (a.u.)      Nuclear  (a.u.)        Total (a.u.)
 ------------------------------------------------------------------------------------

 L = 1.  Multiply by 2.5417464519 to convert [e a0] to [Debye]
 Dipole X            :        -86.3555222           86.9492300            0.5937078
 Dipole Y            :         -2.0425212            1.8013172           -0.2412041
 Dipole Z            :         -4.6687827            4.4874684           -0.1813144
 Magnitude           :                                                    0.6659904

 ------------------------------------------------------------------------------------

*** tstop() called on Moses-MBP.lan at Thu Feb 27 17:11:33 2025
Module time:
	user time   =      71.74 seconds =       1.20 minutes
	system time =       4.98 seconds =       0.08 minutes
	total time  =          9 seconds =       0.15 minutes
Total time:
	user time   =      71.74 seconds =       1.20 minutes
	system time =       4.98 seconds =       0.08 minutes
	total time  =          9 seconds =       0.15 minutes

*** tstart() called on Moses-MBP.lan
*** at Thu Feb 27 17:11:33 2025


  //>>>>>>>>>>>>>>>>>>>>>>>>>>>>>>>>>>>//
  //               DFMP2               //
  //<<<<<<<<<<<<<<<<<<<<<<<<<<<<<<<<<<<//

   => Loading Basis Set <=

    Name: (AUG-CC-PVTZ AUX)
    Role: RIFIT
    Keyword: DF_BASIS_MP2
    atoms 1-2, 10-11 entry C          line   148 file /Users/moseschung/miniconda3/envs/psi4/share/psi4/basis/aug-cc-pvtz-ri.gbs 
    atoms 3, 12      entry O          line   264 file /Users/moseschung/miniconda3/envs/psi4/share/psi4/basis/aug-cc-pvtz-ri.gbs 
    atoms 4-9, 13-18 entry H          line    30 file /Users/moseschung/miniconda3/envs/psi4/share/psi4/basis/aug-cc-pvtz-ri.gbs 

	 --------------------------------------------------------
	                          DF-MP2                         
	      2nd-Order Density-Fitted Moller-Plesset Theory     
	              RMP2 Wavefunction,  10 Threads             
	                                                         
	        Rob Parrish, Justin Turney, Andy Simmonett,      
	           Ed Hohenstein, and C. David Sherrill          
	 --------------------------------------------------------

   => Auxiliary Basis Set <=

  Basis Set: (AUG-CC-PVTZ AUX)
    Blend: AUG-CC-PVTZ-RI
    Number of shells: 336
    Number of basis functions: 1188
    Number of Cartesian functions: 1476
    Spherical Harmonics?: true
    Max angular momentum: 4

	 --------------------------------------------------------
	                 NBF =   552, NAUX =  1188
	 --------------------------------------------------------
	   CLASS    FOCC     OCC    AOCC    AVIR     VIR    FVIR
	   PAIRS       0      13      13     539     539       0
	 --------------------------------------------------------

	-----------------------------------------------------------
	 ==================> DF-MP2 Energies <==================== 
	-----------------------------------------------------------
	 Reference Energy          =    -154.1456169232921241 [Eh]
	 Singles Energy            =      -0.0000000000000000 [Eh]
	 Same-Spin Energy          =      -0.1481723094221675 [Eh]
	 Opposite-Spin Energy      =      -0.5187243245498594 [Eh]
	 Correlation Energy        =      -0.6668966339720269 [Eh]
	 Total Energy              =    -154.8125135572641398 [Eh]
	-----------------------------------------------------------
	 ================> DF-SCS-MP2 Energies <================== 
	-----------------------------------------------------------
	 SCS Same-Spin Scale       =       0.3333333333333333 [-]
	 SCS Opposite-Spin Scale   =       1.2000000000000000 [-]
	 SCS Same-Spin Energy      =      -0.0493907698073892 [Eh]
	 SCS Opposite-Spin Energy  =      -0.6224691894598312 [Eh]
	 SCS Correlation Energy    =      -0.6718599592672204 [Eh]
	 SCS Total Energy          =    -154.8174768825593333 [Eh]
	-----------------------------------------------------------


*** tstop() called on Moses-MBP.lan at Thu Feb 27 17:11:36 2025
Module time:
	user time   =      20.57 seconds =       0.34 minutes
	system time =       1.81 seconds =       0.03 minutes
	total time  =          3 seconds =       0.05 minutes
Total time:
	user time   =      92.32 seconds =       1.54 minutes
	system time =       6.79 seconds =       0.11 minutes
	total time  =         12 seconds =       0.20 minutes

    Psi4 stopped on: Thursday, 27 February 2025 05:11PM
    Psi4 wall time for execution: 0:00:12.33


    -----------------------------------------------------------------------
          Psi4: An Open-Source Ab Initio Electronic Structure Package
                               Psi4 1.9.1 release

                         Git: Rev {} zzzzzzz 


    D. G. A. Smith, L. A. Burns, A. C. Simmonett, R. M. Parrish,
    M. C. Schieber, R. Galvelis, P. Kraus, H. Kruse, R. Di Remigio,
    A. Alenaizan, A. M. James, S. Lehtola, J. P. Misiewicz, M. Scheurer,
    R. A. Shaw, J. B. Schriber, Y. Xie, Z. L. Glick, D. A. Sirianni,
    J. S. O'Brien, J. M. Waldrop, A. Kumar, E. G. Hohenstein,
    B. P. Pritchard, B. R. Brooks, H. F. Schaefer III, A. Yu. Sokolov,
    K. Patkowski, A. E. DePrince III, U. Bozkaya, R. A. King,
    F. A. Evangelista, J. M. Turney, T. D. Crawford, C. D. Sherrill,
    J. Chem. Phys. 152(18) 184108 (2020). https://doi.org/10.1063/5.0006002

                            Additional Code Authors
    E. T. Seidl, C. L. Janssen, E. F. Valeev, M. L. Leininger,
    J. F. Gonthier, R. M. Richard, H. R. McAlexander, M. Saitow, X. Wang,
    P. Verma, M. H. Lechner, A. Jiang, S. Behnle, A. G. Heide,
    M. F. Herbst, and D. L. Poole

             Previous Authors, Complete List of Code Contributors,
                       and Citations for Specific Modules
    https://github.com/psi4/psi4/blob/master/codemeta.json
    https://github.com/psi4/psi4/graphs/contributors
    http://psicode.org/psi4manual/master/introduction.html#citing-psifour

    -----------------------------------------------------------------------


    Psi4 started on: Thursday, 27 February 2025 05:11PM

    Process ID: 30269
    Host:       Moses-MBP.lan
    PSIDATADIR: /Users/moseschung/miniconda3/envs/psi4/share/psi4
    Memory:     9.3 GiB
    Threads:    10
    
  ==> Input QCSchema <==

--------------------------------------------------------------------------
{'driver': 'energy',
 'extras': {'psiapi': True, 'wfn_qcvars_only': True},
 'id': None,
 'keywords': {'SCF_TYPE': 'DF', 'function_kwargs': {}},
 'model': {'basis': 'aug-cc-pvtz', 'method': 'mp2'},
 'molecule': {'atom_labels': ['', '', '', '', '', '', '', '', '', '', '', '', '', '', '', '', '', ''],
              'atomic_numbers': [6, 6, 8, 1, 1, 1, 1, 1, 1, 6, 6, 8, 1, 1, 1, 1, 1, 1],
              'extras': {},
              'fix_com': True,
              'fix_orientation': True,
              'fix_symmetry': 'c1',
              'fragment_charges': [0.0, 0.0],
              'fragment_multiplicities': [1, 1],
              'fragments': [[0, 1, 2, 3, 4, 5, 6, 7, 8], [9, 10, 11, 12, 13, 14, 15, 16, 17]],
              'geometry': [-3.7736753581501317, 1.8065857348421854, 1.1052271114613907, -4.2178970579137545,
                           -0.6645335303739981, -0.2505531177960771, -2.097325768422249, -1.4698818927126112,
                           -1.6265061734428072, -0.6893456344012593, -1.6323548758010993, -0.46377847543598566,
                           -5.455582632412986, 2.4062241803418365, 2.1413922919418, -3.2740374397574583,
                           3.2917857475277583, -0.2389898836344006, -2.22099322552446, 1.6243027527805234,
                           2.457252454907574, -5.761618109252505, -0.46791319619848737, -1.612132916532575,
                           -4.819604753520782, -2.1166123132586714, 1.1127860159632221, 3.2895048480943307,
                           2.1850241784524957, -0.8064160575994972, 4.233676271061327, -0.3948185896657786,
                           -0.09452221106927511, 2.385448531318553, -1.560067182323961, 1.4670057295496648,
                           2.9860280604286817, -3.188570796281377, 1.9922815622864245, 4.664057616682096,
                           3.1532310280091895, -1.9991280400389582, 2.968791868438381, 3.329308149474849,
                           0.8802892312958946, 1.5099629838335722, 2.040197457923533, -1.8417062948838194,
                           6.0364882228309735, -0.25758667843503114, 0.9216213211119082, 4.561226279839183,
                           -1.53595805641537, -1.796305624719695],
              'mass_numbers': [12, 12, 16, 1, 1, 1, 1, 1, 1, 12, 12, 16, 1, 1, 1, 1, 1, 1],
              'masses': [12.0, 12.0, 15.99491461957, 1.00782503223, 1.00782503223, 1.00782503223, 1.00782503223,
                         1.00782503223, 1.00782503223, 12.0, 12.0, 15.99491461957, 1.00782503223, 1.00782503223,
                         1.00782503223, 1.00782503223, 1.00782503223, 1.00782503223],
              'molecular_charge': 0.0,
              'molecular_multiplicity': 1,
              'name': 'dimer',
              'provenance': {'creator': 'QCElemental',
                             'routine': 'qcelemental.molparse.from_string',
                             'version': '0.29.0'},
              'real': [True, True, True, True, True, True, True, True, True, False, False, False, False, False, False,
                       False, False, False],
              'schema_name': 'qcschema_molecule',
              'schema_version': 2,
              'symbols': ['C', 'C', 'O', 'H', 'H', 'H', 'H', 'H', 'H', 'C', 'C', 'O', 'H', 'H', 'H', 'H', 'H', 'H'],
              'validated': True},
 'protocols': {'stdout': True},
 'provenance': {'creator': 'QCElemental', 'routine': 'qcelemental.models.results', 'version': '0.29.0'},
 'schema_name': 'qcschema_input',
 'schema_version': 1}
--------------------------------------------------------------------------

Scratch directory: /tmp/
   => Libint2 <=

    Primary   basis highest AM E, G, H:  6, 6, 3
    Auxiliary basis highest AM E, G, H:  7, 7, 4
    Onebody   basis highest AM E, G, H:  -, -, -
    Solid Harmonics ordering:            Gaussian

*** tstart() called on Moses-MBP.lan
*** at Thu Feb 27 17:11:36 2025

   => Loading Basis Set <=

    Name: AUG-CC-PVTZ
    Role: ORBITAL
    Keyword: BASIS
    atoms 1-2, 10-11 entry C          line   239 file /Users/moseschung/miniconda3/envs/psi4/share/psi4/basis/aug-cc-pvtz.gbs 
    atoms 3, 12      entry O          line   331 file /Users/moseschung/miniconda3/envs/psi4/share/psi4/basis/aug-cc-pvtz.gbs 
    atoms 4-9, 13-18 entry H          line    40 file /Users/moseschung/miniconda3/envs/psi4/share/psi4/basis/aug-cc-pvtz.gbs 


         ---------------------------------------------------------
                                   SCF
               by Justin Turney, Rob Parrish, Andy Simmonett
                          and Daniel G. A. Smith
                              RHF Reference
                       10 Threads,   9536 MiB Core
         ---------------------------------------------------------

  ==> Geometry <==

    Molecular point group: c1
    Full point group: C1

    Geometry (in Bohr), charge = 0, multiplicity = 1:

       Center              X                  Y                   Z               Mass       
    ------------   -----------------  -----------------  -----------------  -----------------
         C           -3.773675358150     1.806585734842     1.105227111461    12.000000000000
         C           -4.217897057914    -0.664533530374    -0.250553117796    12.000000000000
         O           -2.097325768422    -1.469881892713    -1.626506173443    15.994914619570
         H           -0.689345634401    -1.632354875801    -0.463778475436     1.007825032230
         H           -5.455582632413     2.406224180342     2.141392291942     1.007825032230
         H           -3.274037439757     3.291785747528    -0.238989883634     1.007825032230
         H           -2.220993225524     1.624302752781     2.457252454908     1.007825032230
         H           -5.761618109253    -0.467913196198    -1.612132916533     1.007825032230
         H           -4.819604753521    -2.116612313259     1.112786015963     1.007825032230
      Gh(C)           3.289504848094     2.185024178452    -0.806416057599    12.000000000000
      Gh(C)           4.233676271061    -0.394818589666    -0.094522211069    12.000000000000
      Gh(O)           2.385448531319    -1.560067182324     1.467005729550    15.994914619570
      Gh(H)           2.986028060429    -3.188570796281     1.992281562286     1.007825032230
      Gh(H)           4.664057616682     3.153231028009    -1.999128040039     1.007825032230
      Gh(H)           2.968791868438     3.329308149475     0.880289231296     1.007825032230
      Gh(H)           1.509962983834     2.040197457924    -1.841706294884     1.007825032230
      Gh(H)           6.036488222831    -0.257586678435     0.921621321112     1.007825032230
      Gh(H)           4.561226279839    -1.535958056415    -1.796305624720     1.007825032230

  Running in c1 symmetry.

  Rotational constants: A =      0.16143  B =      0.04915  C =      0.04506 [cm^-1]
  Rotational constants: A =   4839.58610  B =   1473.56070  C =   1350.79825 [MHz]
  Nuclear repulsion =   82.169584479116992

  Charge       = 0
  Multiplicity = 1
  Electrons    = 26
  Nalpha       = 13
  Nbeta        = 13

  ==> Algorithm <==

  SCF Algorithm Type is DF.
  DIIS enabled.
  MOM disabled.
  Fractional occupation disabled.
  Guess Type is SAD.
  Energy threshold   = 1.00e-08
  Density threshold  = 1.00e-08
  Integral threshold = 1.00e-12

  ==> Primary Basis <==

  Basis Set: AUG-CC-PVTZ
    Blend: AUG-CC-PVTZ
    Number of shells: 192
    Number of basis functions: 552
    Number of Cartesian functions: 630
    Spherical Harmonics?: true
    Max angular momentum: 3

   => Loading Basis Set <=

    Name: (AUG-CC-PVTZ AUX)
    Role: JKFIT
    Keyword: DF_BASIS_SCF
    atoms 1-2, 10-11 entry C          line   162 file /Users/moseschung/miniconda3/envs/psi4/share/psi4/basis/aug-cc-pvtz-jkfit.gbs 
    atoms 3, 12      entry O          line   286 file /Users/moseschung/miniconda3/envs/psi4/share/psi4/basis/aug-cc-pvtz-jkfit.gbs 
    atoms 4-9, 13-18 entry H          line    70 file /Users/moseschung/miniconda3/envs/psi4/share/psi4/basis/aug-cc-pvtz-jkfit.gbs 

  ==> Integral Setup <==

  DFHelper Memory: AOs need 2.640 GiB; user supplied 6.985 GiB. 
  Using in-core AOs.

  ==> MemDFJK: Density-Fitted J/K Matrices <==

    J tasked:                   Yes
    K tasked:                   Yes
    wK tasked:                   No
    OpenMP threads:              10
    Memory [MiB]:              7152
    Algorithm:                 Core
    Schwarz Cutoff:           1E-12
    Mask sparsity (%):       4.6399
    Fitting Condition:        1E-10

   => Auxiliary Basis Set <=

  Basis Set: (AUG-CC-PVTZ AUX)
    Blend: AUG-CC-PVTZ-JKFIT
    Number of shells: 348
    Number of basis functions: 1176
    Number of Cartesian functions: 1446
    Spherical Harmonics?: true
    Max angular momentum: 4

  Minimum eigenvalue in the overlap matrix is 1.0144923457E-05.
  Reciprocal condition number of the overlap matrix is 5.3720427096E-07.
    Using symmetric orthogonalization.

  ==> Pre-Iterations <==

  SCF Guess: Superposition of Atomic Densities via on-the-fly atomic UHF (no occupation information).

   -------------------------
    Irrep   Nso     Nmo    
   -------------------------
     A        552     552 
   -------------------------
    Total     552     552
   -------------------------

  ==> Iterations <==

                           Total Energy        Delta E     RMS |[F,P]|

   @DF-RHF iter SAD:  -153.45810981475572   -1.53458e+02   0.00000e+00 
   @DF-RHF iter   1:  -154.00274731973670   -5.44638e-01   9.37180e-04 DIIS/ADIIS
   @DF-RHF iter   2:  -154.11476517489587   -1.12018e-01   4.96267e-04 DIIS/ADIIS
   @DF-RHF iter   3:  -154.14288456891947   -2.81194e-02   8.40170e-05 DIIS
   @DF-RHF iter   4:  -154.14447198883860   -1.58742e-03   3.22559e-05 DIIS
   @DF-RHF iter   5:  -154.14466017595046   -1.88187e-04   6.25665e-06 DIIS
   @DF-RHF iter   6:  -154.14467070192222   -1.05260e-05   1.45503e-06 DIIS
   @DF-RHF iter   7:  -154.14467147251548   -7.70593e-07   4.19080e-07 DIIS
   @DF-RHF iter   8:  -154.14467153162872   -5.91132e-08   1.32338e-07 DIIS
   @DF-RHF iter   9:  -154.14467153822139   -6.59267e-09   3.38378e-08 DIIS
   @DF-RHF iter  10:  -154.14467153867719   -4.55799e-10   6.49371e-09 DIIS
  Energy and wave function converged.


  ==> Post-Iterations <==

    Orbital Energies [Eh]
    ---------------------

    Doubly Occupied:                                                      

       1A    -20.557086     2A    -11.273245     3A    -11.218046  
       4A     -1.362727     5A     -1.013260     6A     -0.847498  
       7A     -0.687241     8A     -0.627220     9A     -0.610962  
      10A     -0.544233    11A     -0.527261    12A     -0.479767  
      13A     -0.441799  

    Virtual:                                                              

      14A      0.020601    15A      0.032996    16A      0.034617  
      17A      0.039794    18A      0.050365    19A      0.051667  
      20A      0.052978    21A      0.062960    22A      0.066466  
      23A      0.075499    24A      0.079650    25A      0.086282  
      26A      0.091941    27A      0.107545    28A      0.112643  
      29A      0.118844    30A      0.120914    31A      0.125189  
      32A      0.131078    33A      0.133017    34A      0.144290  
      35A      0.145356    36A      0.152851    37A      0.153897  
      38A      0.160745    39A      0.168708    40A      0.171829  
      41A      0.184483    42A      0.194109    43A      0.199629  
      44A      0.202324    45A      0.215089    46A      0.229277  
      47A      0.237910    48A      0.246883    49A      0.259203  
      50A      0.264020    51A      0.273921    52A      0.278853  
      53A      0.287530    54A      0.290034    55A      0.295725  
      56A      0.302908    57A      0.308235    58A      0.312599  
      59A      0.315690    60A      0.327278    61A      0.330063  
      62A      0.331838    63A      0.338546    64A      0.341059  
      65A      0.346009    66A      0.355708    67A      0.357689  
      68A      0.367569    69A      0.367906    70A      0.371278  
      71A      0.375854    72A      0.388853    73A      0.392785  
      74A      0.398187    75A      0.403723    76A      0.406059  
      77A      0.412166    78A      0.413646    79A      0.426118  
      80A      0.436542    81A      0.438654    82A      0.443799  
      83A      0.448133    84A      0.452934    85A      0.459808  
      86A      0.464922    87A      0.468251    88A      0.475122  
      89A      0.482187    90A      0.486272    91A      0.492832  
      92A      0.499715    93A      0.506771    94A      0.508142  
      95A      0.518480    96A      0.519705    97A      0.532723  
      98A      0.533822    99A      0.541734   100A      0.545435  
     101A      0.554212   102A      0.558265   103A      0.570420  
     104A      0.583235   105A      0.584753   106A      0.587628  
     107A      0.594955   108A      0.607764   109A      0.618450  
     110A      0.622237   111A      0.629977   112A      0.631732  
     113A      0.639663   114A      0.648582   115A      0.652184  
     116A      0.657973   117A      0.665295   118A      0.672078  
     119A      0.683588   120A      0.694025   121A      0.699677  
     122A      0.717374   123A      0.729439   124A      0.737994  
     125A      0.750870   126A      0.758514   127A      0.760851  
     128A      0.783101   129A      0.791202   130A      0.793870  
     131A      0.805955   132A      0.816696   133A      0.833668  
     134A      0.839155   135A      0.854809   136A      0.870313  
     137A      0.874255   138A      0.878991   139A      0.886622  
     140A      0.894925   141A      0.903403   142A      0.908036  
     143A      0.927383   144A      0.928595   145A      0.941109  
     146A      0.950515   147A      0.962811   148A      0.968167  
     149A      0.978468   150A      0.986585   151A      0.988878  
     152A      0.998140   153A      1.004778   154A      1.014871  
     155A      1.020904   156A      1.026554   157A      1.030541  
     158A      1.036727   159A      1.044722   160A      1.054341  
     161A      1.063634   162A      1.064647   163A      1.075814  
     164A      1.081363   165A      1.086460   166A      1.093763  
     167A      1.105391   168A      1.106048   169A      1.110399  
     170A      1.114088   171A      1.120791   172A      1.130939  
     173A      1.142084   174A      1.145515   175A      1.153738  
     176A      1.156810   177A      1.163872   178A      1.171191  
     179A      1.181646   180A      1.188109   181A      1.200030  
     182A      1.211113   183A      1.218530   184A      1.218906  
     185A      1.222401   186A      1.232220   187A      1.237496  
     188A      1.246136   189A      1.254004   190A      1.265950  
     191A      1.273143   192A      1.283712   193A      1.290062  
     194A      1.297378   195A      1.302898   196A      1.304209  
     197A      1.318598   198A      1.327592   199A      1.331223  
     200A      1.342104   201A      1.351097   202A      1.355925  
     203A      1.360245   204A      1.375148   205A      1.376578  
     206A      1.388979   207A      1.395497   208A      1.411974  
     209A      1.424251   210A      1.433065   211A      1.438805  
     212A      1.452880   213A      1.461092   214A      1.468673  
     215A      1.478172   216A      1.484055   217A      1.488297  
     218A      1.503297   219A      1.524136   220A      1.528550  
     221A      1.536316   222A      1.554532   223A      1.560730  
     224A      1.570187   225A      1.577009   226A      1.582377  
     227A      1.595209   228A      1.606375   229A      1.619961  
     230A      1.630268   231A      1.643937   232A      1.645297  
     233A      1.661440   234A      1.669676   235A      1.676258  
     236A      1.686277   237A      1.692756   238A      1.707711  
     239A      1.721368   240A      1.729222   241A      1.736273  
     242A      1.742154   243A      1.762227   244A      1.767720  
     245A      1.783609   246A      1.793618   247A      1.799308  
     248A      1.822514   249A      1.831509   250A      1.845369  
     251A      1.851894   252A      1.860556   253A      1.876073  
     254A      1.894511   255A      1.899700   256A      1.919442  
     257A      1.925943   258A      1.938488   259A      1.943488  
     260A      1.956909   261A      1.967896   262A      1.970889  
     263A      1.980875   264A      1.993865   265A      2.003182  
     266A      2.015677   267A      2.021577   268A      2.033218  
     269A      2.039489   270A      2.052295   271A      2.068822  
     272A      2.092791   273A      2.110850   274A      2.117519  
     275A      2.134784   276A      2.142079   277A      2.164994  
     278A      2.182813   279A      2.185987   280A      2.194922  
     281A      2.200149   282A      2.223620   283A      2.232709  
     284A      2.239288   285A      2.254460   286A      2.259232  
     287A      2.278812   288A      2.280055   289A      2.296862  
     290A      2.320831   291A      2.332667   292A      2.341835  
     293A      2.364278   294A      2.380027   295A      2.383663  
     296A      2.405720   297A      2.437455   298A      2.439616  
     299A      2.460112   300A      2.481824   301A      2.498402  
     302A      2.518478   303A      2.527616   304A      2.551431  
     305A      2.589320   306A      2.634559   307A      2.653315  
     308A      2.676642   309A      2.694158   310A      2.706374  
     311A      2.732750   312A      2.744815   313A      2.754696  
     314A      2.761488   315A      2.769920   316A      2.791993  
     317A      2.810661   318A      2.828345   319A      2.849905  
     320A      2.869843   321A      2.923317   322A      2.934354  
     323A      2.955613   324A      2.994140   325A      3.005186  
     326A      3.031329   327A      3.053225   328A      3.088114  
     329A      3.121467   330A      3.134916   331A      3.157517  
     332A      3.181608   333A      3.215757   334A      3.221979  
     335A      3.255140   336A      3.286652   337A      3.321154  
     338A      3.348295   339A      3.390767   340A      3.407174  
     341A      3.434651   342A      3.446931   343A      3.478688  
     344A      3.514455   345A      3.541771   346A      3.544927  
     347A      3.586573   348A      3.610361   349A      3.627465  
     350A      3.659253   351A      3.663952   352A      3.670523  
     353A      3.700011   354A      3.724340   355A      3.745174  
     356A      3.761581   357A      3.782801   358A      3.787616  
     359A      3.830034   360A      3.854154   361A      3.875488  
     362A      3.890367   363A      3.912677   364A      3.962908  
     365A      3.978872   366A      4.000078   367A      4.011143  
     368A      4.023746   369A      4.057160   370A      4.080855  
     371A      4.085640   372A      4.125650   373A      4.138410  
     374A      4.149969   375A      4.156086   376A      4.175170  
     377A      4.181984   378A      4.192836   379A      4.204354  
     380A      4.223489   381A      4.233336   382A      4.245495  
     383A      4.263458   384A      4.291899   385A      4.296771  
     386A      4.337770   387A      4.340224   388A      4.358742  
     389A      4.374125   390A      4.397317   391A      4.411263  
     392A      4.426287   393A      4.457483   394A      4.480493  
     395A      4.484025   396A      4.496152   397A      4.499577  
     398A      4.530747   399A      4.544645   400A      4.553729  
     401A      4.571013   402A      4.587650   403A      4.610611  
     404A      4.639871   405A      4.654655   406A      4.674515  
     407A      4.685467   408A      4.688606   409A      4.706985  
     410A      4.738583   411A      4.742433   412A      4.755907  
     413A      4.768366   414A      4.783212   415A      4.795059  
     416A      4.819475   417A      4.830774   418A      4.856348  
     419A      4.881429   420A      4.890999   421A      4.895341  
     422A      4.907117   423A      4.913279   424A      4.937682  
     425A      4.952237   426A      4.963768   427A      4.976782  
     428A      4.989037   429A      5.003177   430A      5.033564  
     431A      5.043248   432A      5.046397   433A      5.061383  
     434A      5.073832   435A      5.103010   436A      5.135676  
     437A      5.155714   438A      5.165979   439A      5.176927  
     440A      5.190394   441A      5.223057   442A      5.234618  
     443A      5.251738   444A      5.277111   445A      5.307858  
     446A      5.321619   447A      5.337765   448A      5.363856  
     449A      5.387597   450A      5.400309   451A      5.409969  
     452A      5.430451   453A      5.435212   454A      5.456348  
     455A      5.489299   456A      5.503833   457A      5.538209  
     458A      5.542210   459A      5.567719   460A      5.583099  
     461A      5.597162   462A      5.610004   463A      5.616630  
     464A      5.626936   465A      5.657952   466A      5.672532  
     467A      5.699005   468A      5.712812   469A      5.714551  
     470A      5.722896   471A      5.751240   472A      5.788277  
     473A      5.811509   474A      5.844866   475A      5.865991  
     476A      5.877056   477A      5.958092   478A      5.976219  
     479A      6.014613   480A      6.035735   481A      6.074904  
     482A      6.090011   483A      6.142028   484A      6.158442  
     485A      6.173171   486A      6.178704   487A      6.231930  
     488A      6.245388   489A      6.280934   490A      6.297563  
     491A      6.304568   492A      6.335032   493A      6.415073  
     494A      6.466856   495A      6.565698   496A      6.706073  
     497A      6.774889   498A      6.803173   499A      6.856331  
     500A      6.858078   501A      6.875111   502A      6.955853  
     503A      6.989085   504A      7.015457   505A      7.058002  
     506A      7.089060   507A      7.165061   508A      7.205406  
     509A      7.249307   510A      7.298566   511A      7.427769  
     512A      7.482013   513A      7.550640   514A      7.573924  
     515A      7.676313   516A      7.765640   517A      7.856458  
     518A      7.873950   519A      7.888069   520A      7.896672  
     521A      7.952353   522A      8.004050   523A      8.032400  
     524A      8.061168   525A      8.164297   526A      8.214529  
     527A      8.254714   528A      8.313400   529A      8.336855  
     530A      8.392538   531A      8.446122   532A      8.595774  
     533A      8.698299   534A      8.892633   535A      9.063540  
     536A     10.016965   537A     10.148991   538A     10.351101  
     539A     10.410342   540A     10.475956   541A     10.812473  
     542A     11.071978   543A     12.029893   544A     12.495925  
     545A     13.287779   546A     14.142055   547A     17.035227  
     548A     17.760298   549A     18.654295   550A     53.195261  
     551A     54.338041   552A     66.886242  

    Final Occupation by Irrep:
              A 
    DOCC [    13 ]
    NA   [    13 ]
    NB   [    13 ]

  @DF-RHF Final Energy:  -154.14467153867719

   => Energetics <=

    Nuclear Repulsion Energy =             82.1695844791169918
    One-Electron Energy =                -372.2478178295684756
    Two-Electron Energy =                 135.9335618117742683
    Total Energy =                       -154.1446715386771871

Computation Completed


Properties will be evaluated at   0.000000,   0.000000,   0.000000 [a0]

Properties computed using the SCF density matrix


 Multipole Moments:

 ------------------------------------------------------------------------------------
     Multipole            Electronic (a.u.)      Nuclear  (a.u.)        Total (a.u.)
 ------------------------------------------------------------------------------------

 L = 1.  Multiply by 2.5417464519 to convert [e a0] to [Debye]
 Dipole X            :         86.9148297          -86.9492224           -0.0343927
 Dipole Y            :          1.9727928           -1.8013096            0.1714831
 Dipole Z            :          5.1711196           -4.4874759            0.6836436
 Magnitude           :                                                    0.7056613

 ------------------------------------------------------------------------------------

*** tstop() called on Moses-MBP.lan at Thu Feb 27 17:11:46 2025
Module time:
	user time   =      71.68 seconds =       1.19 minutes
	system time =       6.22 seconds =       0.10 minutes
	total time  =         10 seconds =       0.17 minutes
Total time:
	user time   =     164.23 seconds =       2.74 minutes
	system time =      13.10 seconds =       0.22 minutes
	total time  =         22 seconds =       0.37 minutes

*** tstart() called on Moses-MBP.lan
*** at Thu Feb 27 17:11:46 2025


  //>>>>>>>>>>>>>>>>>>>>>>>>>>>>>>>>>>>//
  //               DFMP2               //
  //<<<<<<<<<<<<<<<<<<<<<<<<<<<<<<<<<<<//

   => Loading Basis Set <=

    Name: (AUG-CC-PVTZ AUX)
    Role: RIFIT
    Keyword: DF_BASIS_MP2
    atoms 1-2, 10-11 entry C          line   148 file /Users/moseschung/miniconda3/envs/psi4/share/psi4/basis/aug-cc-pvtz-ri.gbs 
    atoms 3, 12      entry O          line   264 file /Users/moseschung/miniconda3/envs/psi4/share/psi4/basis/aug-cc-pvtz-ri.gbs 
    atoms 4-9, 13-18 entry H          line    30 file /Users/moseschung/miniconda3/envs/psi4/share/psi4/basis/aug-cc-pvtz-ri.gbs 

	 --------------------------------------------------------
	                          DF-MP2                         
	      2nd-Order Density-Fitted Moller-Plesset Theory     
	              RMP2 Wavefunction,  10 Threads             
	                                                         
	        Rob Parrish, Justin Turney, Andy Simmonett,      
	           Ed Hohenstein, and C. David Sherrill          
	 --------------------------------------------------------

   => Auxiliary Basis Set <=

  Basis Set: (AUG-CC-PVTZ AUX)
    Blend: AUG-CC-PVTZ-RI
    Number of shells: 336
    Number of basis functions: 1188
    Number of Cartesian functions: 1476
    Spherical Harmonics?: true
    Max angular momentum: 4

	 --------------------------------------------------------
	                 NBF =   552, NAUX =  1188
	 --------------------------------------------------------
	   CLASS    FOCC     OCC    AOCC    AVIR     VIR    FVIR
	   PAIRS       0      13      13     539     539       0
	 --------------------------------------------------------

	-----------------------------------------------------------
	 ==================> DF-MP2 Energies <==================== 
	-----------------------------------------------------------
	 Reference Energy          =    -154.1446715386771871 [Eh]
	 Singles Energy            =      -0.0000000000000000 [Eh]
	 Same-Spin Energy          =      -0.1483254884825799 [Eh]
	 Opposite-Spin Energy      =      -0.5188798806981645 [Eh]
	 Correlation Energy        =      -0.6672053691807444 [Eh]
	 Total Energy              =    -154.8118769078579362 [Eh]
	-----------------------------------------------------------
	 ================> DF-SCS-MP2 Energies <================== 
	-----------------------------------------------------------
	 SCS Same-Spin Scale       =       0.3333333333333333 [-]
	 SCS Opposite-Spin Scale   =       1.2000000000000000 [-]
	 SCS Same-Spin Energy      =      -0.0494418294941933 [Eh]
	 SCS Opposite-Spin Energy  =      -0.6226558568377973 [Eh]
	 SCS Correlation Energy    =      -0.6720976863319906 [Eh]
	 SCS Total Energy          =    -154.8167692250091818 [Eh]
	-----------------------------------------------------------


*** tstop() called on Moses-MBP.lan at Thu Feb 27 17:11:49 2025
Module time:
	user time   =      20.18 seconds =       0.34 minutes
	system time =       1.73 seconds =       0.03 minutes
	total time  =          3 seconds =       0.05 minutes
Total time:
	user time   =     184.41 seconds =       3.07 minutes
	system time =      14.83 seconds =       0.25 minutes
	total time  =         25 seconds =       0.42 minutes

    Psi4 stopped on: Thursday, 27 February 2025 05:11PM
    Psi4 wall time for execution: 0:00:12.67


    -----------------------------------------------------------------------
          Psi4: An Open-Source Ab Initio Electronic Structure Package
                               Psi4 1.9.1 release

                         Git: Rev {} zzzzzzz 


    D. G. A. Smith, L. A. Burns, A. C. Simmonett, R. M. Parrish,
    M. C. Schieber, R. Galvelis, P. Kraus, H. Kruse, R. Di Remigio,
    A. Alenaizan, A. M. James, S. Lehtola, J. P. Misiewicz, M. Scheurer,
    R. A. Shaw, J. B. Schriber, Y. Xie, Z. L. Glick, D. A. Sirianni,
    J. S. O'Brien, J. M. Waldrop, A. Kumar, E. G. Hohenstein,
    B. P. Pritchard, B. R. Brooks, H. F. Schaefer III, A. Yu. Sokolov,
    K. Patkowski, A. E. DePrince III, U. Bozkaya, R. A. King,
    F. A. Evangelista, J. M. Turney, T. D. Crawford, C. D. Sherrill,
    J. Chem. Phys. 152(18) 184108 (2020). https://doi.org/10.1063/5.0006002

                            Additional Code Authors
    E. T. Seidl, C. L. Janssen, E. F. Valeev, M. L. Leininger,
    J. F. Gonthier, R. M. Richard, H. R. McAlexander, M. Saitow, X. Wang,
    P. Verma, M. H. Lechner, A. Jiang, S. Behnle, A. G. Heide,
    M. F. Herbst, and D. L. Poole

             Previous Authors, Complete List of Code Contributors,
                       and Citations for Specific Modules
    https://github.com/psi4/psi4/blob/master/codemeta.json
    https://github.com/psi4/psi4/graphs/contributors
    http://psicode.org/psi4manual/master/introduction.html#citing-psifour

    -----------------------------------------------------------------------


    Psi4 started on: Thursday, 27 February 2025 05:11PM

    Process ID: 30269
    Host:       Moses-MBP.lan
    PSIDATADIR: /Users/moseschung/miniconda3/envs/psi4/share/psi4
    Memory:     9.3 GiB
    Threads:    10
    
  ==> Input QCSchema <==

--------------------------------------------------------------------------
{'driver': 'energy',
 'extras': {'psiapi': True, 'wfn_qcvars_only': True},
 'id': None,
 'keywords': {'SCF_TYPE': 'DF', 'function_kwargs': {}},
 'model': {'basis': 'aug-cc-pvtz', 'method': 'mp2'},
 'molecule': {'atom_labels': ['', '', '', '', '', '', '', '', '', '', '', '', '', '', '', '', '', ''],
              'atomic_numbers': [6, 6, 8, 1, 1, 1, 1, 1, 1, 6, 6, 8, 1, 1, 1, 1, 1, 1],
              'extras': {},
              'fix_com': True,
              'fix_orientation': True,
              'fix_symmetry': 'c1',
              'fragment_charges': [0.0, 0.0],
              'fragment_multiplicities': [1, 1],
              'fragments': [[0, 1, 2, 3, 4, 5, 6, 7, 8], [9, 10, 11, 12, 13, 14, 15, 16, 17]],
              'geometry': [-3.7736753581501317, 1.8065857348421854, 1.1052271114613907, -4.2178970579137545,
                           -0.6645335303739981, -0.2505531177960771, -2.097325768422249, -1.4698818927126112,
                           -1.6265061734428072, -0.6893456344012593, -1.6323548758010993, -0.46377847543598566,
                           -5.455582632412986, 2.4062241803418365, 2.1413922919418, -3.2740374397574583,
                           3.2917857475277583, -0.2389898836344006, -2.22099322552446, 1.6243027527805234,
                           2.457252454907574, -5.761618109252505, -0.46791319619848737, -1.612132916532575,
                           -4.819604753520782, -2.1166123132586714, 1.1127860159632221, 3.2895048480943307,
                           2.1850241784524957, -0.8064160575994972, 4.233676271061327, -0.3948185896657786,
                           -0.09452221106927511, 2.385448531318553, -1.560067182323961, 1.4670057295496648,
                           2.9860280604286817, -3.188570796281377, 1.9922815622864245, 4.664057616682096,
                           3.1532310280091895, -1.9991280400389582, 2.968791868438381, 3.329308149474849,
                           0.8802892312958946, 1.5099629838335722, 2.040197457923533, -1.8417062948838194,
                           6.0364882228309735, -0.25758667843503114, 0.9216213211119082, 4.561226279839183,
                           -1.53595805641537, -1.796305624719695],
              'mass_numbers': [12, 12, 16, 1, 1, 1, 1, 1, 1, 12, 12, 16, 1, 1, 1, 1, 1, 1],
              'masses': [12.0, 12.0, 15.99491461957, 1.00782503223, 1.00782503223, 1.00782503223, 1.00782503223,
                         1.00782503223, 1.00782503223, 12.0, 12.0, 15.99491461957, 1.00782503223, 1.00782503223,
                         1.00782503223, 1.00782503223, 1.00782503223, 1.00782503223],
              'molecular_charge': 0.0,
              'molecular_multiplicity': 1,
              'name': 'dimer',
              'provenance': {'creator': 'QCElemental',
                             'routine': 'qcelemental.molparse.from_string',
                             'version': '0.29.0'},
              'real': [True, True, True, True, True, True, True, True, True, True, True, True, True, True, True, True,
                       True, True],
              'schema_name': 'qcschema_molecule',
              'schema_version': 2,
              'symbols': ['C', 'C', 'O', 'H', 'H', 'H', 'H', 'H', 'H', 'C', 'C', 'O', 'H', 'H', 'H', 'H', 'H', 'H'],
              'validated': True},
 'protocols': {'stdout': True},
 'provenance': {'creator': 'QCElemental', 'routine': 'qcelemental.models.results', 'version': '0.29.0'},
 'schema_name': 'qcschema_input',
 'schema_version': 1}
--------------------------------------------------------------------------

Scratch directory: /tmp/
   => Libint2 <=

    Primary   basis highest AM E, G, H:  6, 6, 3
    Auxiliary basis highest AM E, G, H:  7, 7, 4
    Onebody   basis highest AM E, G, H:  -, -, -
    Solid Harmonics ordering:            Gaussian

*** tstart() called on Moses-MBP.lan
*** at Thu Feb 27 17:11:49 2025

   => Loading Basis Set <=

    Name: AUG-CC-PVTZ
    Role: ORBITAL
    Keyword: BASIS
    atoms 1-2, 10-11 entry C          line   239 file /Users/moseschung/miniconda3/envs/psi4/share/psi4/basis/aug-cc-pvtz.gbs 
    atoms 3, 12      entry O          line   331 file /Users/moseschung/miniconda3/envs/psi4/share/psi4/basis/aug-cc-pvtz.gbs 
    atoms 4-9, 13-18 entry H          line    40 file /Users/moseschung/miniconda3/envs/psi4/share/psi4/basis/aug-cc-pvtz.gbs 


         ---------------------------------------------------------
                                   SCF
               by Justin Turney, Rob Parrish, Andy Simmonett
                          and Daniel G. A. Smith
                              RHF Reference
                       10 Threads,   9536 MiB Core
         ---------------------------------------------------------

  ==> Geometry <==

    Molecular point group: c1
    Full point group: C1

    Geometry (in Bohr), charge = 0, multiplicity = 1:

       Center              X                  Y                   Z               Mass       
    ------------   -----------------  -----------------  -----------------  -----------------
         C           -3.773675358150     1.806585734842     1.105227111461    12.000000000000
         C           -4.217897057914    -0.664533530374    -0.250553117796    12.000000000000
         O           -2.097325768422    -1.469881892713    -1.626506173443    15.994914619570
         H           -0.689345634401    -1.632354875801    -0.463778475436     1.007825032230
         H           -5.455582632413     2.406224180342     2.141392291942     1.007825032230
         H           -3.274037439757     3.291785747528    -0.238989883634     1.007825032230
         H           -2.220993225524     1.624302752781     2.457252454908     1.007825032230
         H           -5.761618109253    -0.467913196198    -1.612132916533     1.007825032230
         H           -4.819604753521    -2.116612313259     1.112786015963     1.007825032230
         C            3.289504848094     2.185024178452    -0.806416057599    12.000000000000
         C            4.233676271061    -0.394818589666    -0.094522211069    12.000000000000
         O            2.385448531319    -1.560067182324     1.467005729550    15.994914619570
         H            2.986028060429    -3.188570796281     1.992281562286     1.007825032230
         H            4.664057616682     3.153231028009    -1.999128040039     1.007825032230
         H            2.968791868438     3.329308149475     0.880289231296     1.007825032230
         H            1.509962983834     2.040197457924    -1.841706294884     1.007825032230
         H            6.036488222831    -0.257586678435     0.921621321112     1.007825032230
         H            4.561226279839    -1.535958056415    -1.796305624720     1.007825032230

  Running in c1 symmetry.

  Rotational constants: A =      0.16143  B =      0.04915  C =      0.04506 [cm^-1]
  Rotational constants: A =   4839.58610  B =   1473.56070  C =   1350.79825 [MHz]
  Nuclear repulsion =  259.549869246359094

  Charge       = 0
  Multiplicity = 1
  Electrons    = 52
  Nalpha       = 26
  Nbeta        = 26

  ==> Algorithm <==

  SCF Algorithm Type is DF.
  DIIS enabled.
  MOM disabled.
  Fractional occupation disabled.
  Guess Type is SAD.
  Energy threshold   = 1.00e-08
  Density threshold  = 1.00e-08
  Integral threshold = 1.00e-12

  ==> Primary Basis <==

  Basis Set: AUG-CC-PVTZ
    Blend: AUG-CC-PVTZ
    Number of shells: 192
    Number of basis functions: 552
    Number of Cartesian functions: 630
    Spherical Harmonics?: true
    Max angular momentum: 3

   => Loading Basis Set <=

    Name: (AUG-CC-PVTZ AUX)
    Role: JKFIT
    Keyword: DF_BASIS_SCF
    atoms 1-2, 10-11 entry C          line   162 file /Users/moseschung/miniconda3/envs/psi4/share/psi4/basis/aug-cc-pvtz-jkfit.gbs 
    atoms 3, 12      entry O          line   286 file /Users/moseschung/miniconda3/envs/psi4/share/psi4/basis/aug-cc-pvtz-jkfit.gbs 
    atoms 4-9, 13-18 entry H          line    70 file /Users/moseschung/miniconda3/envs/psi4/share/psi4/basis/aug-cc-pvtz-jkfit.gbs 

  ==> Integral Setup <==

  DFHelper Memory: AOs need 2.640 GiB; user supplied 6.985 GiB. 
  Using in-core AOs.

  ==> MemDFJK: Density-Fitted J/K Matrices <==

    J tasked:                   Yes
    K tasked:                   Yes
    wK tasked:                   No
    OpenMP threads:              10
    Memory [MiB]:              7152
    Algorithm:                 Core
    Schwarz Cutoff:           1E-12
    Mask sparsity (%):       4.6399
    Fitting Condition:        1E-10

   => Auxiliary Basis Set <=

  Basis Set: (AUG-CC-PVTZ AUX)
    Blend: AUG-CC-PVTZ-JKFIT
    Number of shells: 348
    Number of basis functions: 1176
    Number of Cartesian functions: 1446
    Spherical Harmonics?: true
    Max angular momentum: 4

  Minimum eigenvalue in the overlap matrix is 1.0144923457E-05.
  Reciprocal condition number of the overlap matrix is 5.3720427096E-07.
    Using symmetric orthogonalization.

  ==> Pre-Iterations <==

  SCF Guess: Superposition of Atomic Densities via on-the-fly atomic UHF (no occupation information).

   -------------------------
    Irrep   Nso     Nmo    
   -------------------------
     A        552     552 
   -------------------------
    Total     552     552
   -------------------------

  ==> Iterations <==

                           Total Energy        Delta E     RMS |[F,P]|

   @DF-RHF iter SAD:  -307.09600304115560   -3.07096e+02   0.00000e+00 
   @DF-RHF iter   1:  -308.01861146962221   -9.22608e-01   1.30302e-03 DIIS/ADIIS
   @DF-RHF iter   2:  -308.23721568074666   -2.18604e-01   6.74490e-04 DIIS/ADIIS
   @DF-RHF iter   3:  -308.29073263098383   -5.35170e-02   1.16760e-04 DIIS/ADIIS
   @DF-RHF iter   4:  -308.29384717542410   -3.11454e-03   4.20517e-05 DIIS
   @DF-RHF iter   5:  -308.29416055364260   -3.13378e-04   8.70168e-06 DIIS
   @DF-RHF iter   6:  -308.29418087350967   -2.03199e-05   2.00746e-06 DIIS
   @DF-RHF iter   7:  -308.29418226038160   -1.38687e-06   5.66487e-07 DIIS
   @DF-RHF iter   8:  -308.29418236060087   -1.00219e-07   1.77304e-07 DIIS
   @DF-RHF iter   9:  -308.29418237072889   -1.01280e-08   5.54813e-08 DIIS
   @DF-RHF iter  10:  -308.29418237160098   -8.72092e-10   2.00816e-08 DIIS
   @DF-RHF iter  11:  -308.29418237168767   -8.66862e-11   5.05505e-09 DIIS
  Energy and wave function converged.


  ==> Post-Iterations <==

    Orbital Energies [Eh]
    ---------------------

    Doubly Occupied:                                                      

       1A    -20.576826     2A    -20.527509     3A    -11.284713  
       4A    -11.256486     5A    -11.214574     6A    -11.202446  
       7A     -1.381989     8A     -1.338008     9A     -1.023662  
      10A     -0.996852    11A     -0.844802    12A     -0.829620  
      13A     -0.720979    14A     -0.675828    15A     -0.653491  
      16A     -0.607915    17A     -0.594861    18A     -0.587041  
      19A     -0.541012    20A     -0.537232    21A     -0.525598  
      22A     -0.512567    23A     -0.499835    24A     -0.464518  
      25A     -0.451124    26A     -0.420001  

    Virtual:                                                              

      27A      0.025662    28A      0.035664    29A      0.037121  
      30A      0.041935    31A      0.051273    32A      0.052713  
      33A      0.054389    34A      0.063585    35A      0.069802  
      36A      0.075818    37A      0.086974    38A      0.088444  
      39A      0.108020    40A      0.114967    41A      0.122017  
      42A      0.122576    43A      0.130766    44A      0.134046  
      45A      0.138726    46A      0.145412    47A      0.149873  
      48A      0.153206    49A      0.155044    50A      0.164198  
      51A      0.166667    52A      0.176609    53A      0.182507  
      54A      0.192606    55A      0.200293    56A      0.207546  
      57A      0.208996    58A      0.235293    59A      0.236779  
      60A      0.245978    61A      0.250819    62A      0.257852  
      63A      0.279507    64A      0.284814    65A      0.292484  
      66A      0.293939    67A      0.295908    68A      0.305531  
      69A      0.310715    70A      0.316684    71A      0.320196  
      72A      0.321105    73A      0.328091    74A      0.337915  
      75A      0.341088    76A      0.350954    77A      0.353925  
      78A      0.355813    79A      0.360310    80A      0.363186  
      81A      0.373316    82A      0.378274    83A      0.384362  
      84A      0.389562    85A      0.395760    86A      0.400789  
      87A      0.401189    88A      0.406124    89A      0.410335  
      90A      0.420404    91A      0.425485    92A      0.432051  
      93A      0.435952    94A      0.439465    95A      0.445163  
      96A      0.448948    97A      0.449733    98A      0.461975  
      99A      0.465982   100A      0.470018   101A      0.474563  
     102A      0.485145   103A      0.488101   104A      0.493238  
     105A      0.495243   106A      0.498574   107A      0.509179  
     108A      0.515037   109A      0.520186   110A      0.524287  
     111A      0.531590   112A      0.534327   113A      0.542738  
     114A      0.551083   115A      0.554278   116A      0.561524  
     117A      0.567290   118A      0.569470   119A      0.578268  
     120A      0.582471   121A      0.589815   122A      0.599863  
     123A      0.606648   124A      0.612392   125A      0.620670  
     126A      0.632120   127A      0.640992   128A      0.642341  
     129A      0.652685   130A      0.662525   131A      0.678103  
     132A      0.695155   133A      0.701827   134A      0.713777  
     135A      0.741404   136A      0.745934   137A      0.768749  
     138A      0.775656   139A      0.783537   140A      0.793143  
     141A      0.797778   142A      0.802520   143A      0.813046  
     144A      0.819591   145A      0.830960   146A      0.842112  
     147A      0.842518   148A      0.846138   149A      0.866500  
     150A      0.872200   151A      0.874710   152A      0.882882  
     153A      0.886648   154A      0.890383   155A      0.900921  
     156A      0.907484   157A      0.910170   158A      0.923485  
     159A      0.927450   160A      0.929202   161A      0.940449  
     162A      0.942507   163A      0.954831   164A      0.962314  
     165A      0.970649   166A      0.976148   167A      0.979118  
     168A      0.986148   169A      0.997061   170A      1.001547  
     171A      1.014780   172A      1.019167   173A      1.020990  
     174A      1.032886   175A      1.036704   176A      1.048425  
     177A      1.057668   178A      1.065982   179A      1.068156  
     180A      1.074937   181A      1.081512   182A      1.085334  
     183A      1.101885   184A      1.105032   185A      1.107974  
     186A      1.115127   187A      1.120452   188A      1.133255  
     189A      1.143271   190A      1.150114   191A      1.154902  
     192A      1.161917   193A      1.165820   194A      1.175290  
     195A      1.180860   196A      1.186513   197A      1.193149  
     198A      1.200666   199A      1.211276   200A      1.219470  
     201A      1.226118   202A      1.235344   203A      1.242851  
     204A      1.248468   205A      1.273939   206A      1.281611  
     207A      1.282272   208A      1.288868   209A      1.294915  
     210A      1.299105   211A      1.306150   212A      1.317256  
     213A      1.327117   214A      1.347559   215A      1.352132  
     216A      1.364887   217A      1.369571   218A      1.377505  
     219A      1.391007   220A      1.400046   221A      1.404685  
     222A      1.412376   223A      1.421532   224A      1.435727  
     225A      1.450767   226A      1.453910   227A      1.468173  
     228A      1.475882   229A      1.488694   230A      1.498996  
     231A      1.512555   232A      1.513559   233A      1.530927  
     234A      1.532885   235A      1.548218   236A      1.559928  
     237A      1.565911   238A      1.580668   239A      1.595765  
     240A      1.599505   241A      1.621745   242A      1.631964  
     243A      1.635017   244A      1.646635   245A      1.652896  
     246A      1.657837   247A      1.667975   248A      1.674445  
     249A      1.678521   250A      1.696034   251A      1.701971  
     252A      1.712652   253A      1.718431   254A      1.721055  
     255A      1.730322   256A      1.741661   257A      1.748898  
     258A      1.761601   259A      1.774451   260A      1.783444  
     261A      1.792916   262A      1.795954   263A      1.809414  
     264A      1.815327   265A      1.819808   266A      1.837546  
     267A      1.840798   268A      1.844585   269A      1.865191  
     270A      1.866087   271A      1.900946   272A      1.910161  
     273A      1.913524   274A      1.925420   275A      1.937044  
     276A      1.950416   277A      1.966454   278A      1.967172  
     279A      1.980630   280A      1.985732   281A      2.000366  
     282A      2.001938   283A      2.007103   284A      2.024307  
     285A      2.035576   286A      2.061570   287A      2.072174  
     288A      2.088329   289A      2.097549   290A      2.107380  
     291A      2.126807   292A      2.133475   293A      2.138282  
     294A      2.161052   295A      2.165415   296A      2.175452  
     297A      2.194902   298A      2.216097   299A      2.221537  
     300A      2.248298   301A      2.268895   302A      2.278573  
     303A      2.289769   304A      2.295491   305A      2.315409  
     306A      2.317271   307A      2.334846   308A      2.363713  
     309A      2.365292   310A      2.383194   311A      2.389034  
     312A      2.409748   313A      2.433187   314A      2.456446  
     315A      2.462967   316A      2.474182   317A      2.486797  
     318A      2.527525   319A      2.562746   320A      2.610380  
     321A      2.639069   322A      2.684694   323A      2.697260  
     324A      2.741208   325A      2.754877   326A      2.763642  
     327A      2.777800   328A      2.799212   329A      2.837405  
     330A      2.862402   331A      2.884536   332A      2.904091  
     333A      2.915147   334A      2.947747   335A      2.959163  
     336A      2.984091   337A      3.009021   338A      3.014915  
     339A      3.069141   340A      3.076563   341A      3.114856  
     342A      3.132008   343A      3.152864   344A      3.167947  
     345A      3.219012   346A      3.236987   347A      3.261238  
     348A      3.302586   349A      3.319733   350A      3.370136  
     351A      3.416652   352A      3.427507   353A      3.445732  
     354A      3.461366   355A      3.480009   356A      3.501355  
     357A      3.510112   358A      3.522879   359A      3.545545  
     360A      3.570917   361A      3.607637   362A      3.640946  
     363A      3.655772   364A      3.664005   365A      3.671660  
     366A      3.675845   367A      3.687836   368A      3.700377  
     369A      3.715913   370A      3.725799   371A      3.734031  
     372A      3.762843   373A      3.772525   374A      3.778029  
     375A      3.787073   376A      3.808629   377A      3.819374  
     378A      3.821313   379A      3.835565   380A      3.856654  
     381A      3.882883   382A      3.888608   383A      3.913170  
     384A      3.929949   385A      3.952578   386A      3.982075  
     387A      3.992112   388A      3.999366   389A      4.005383  
     390A      4.012682   391A      4.025976   392A      4.045824  
     393A      4.060978   394A      4.069897   395A      4.079482  
     396A      4.087278   397A      4.108324   398A      4.124296  
     399A      4.137707   400A      4.144442   401A      4.174995  
     402A      4.190411   403A      4.196347   404A      4.211234  
     405A      4.219368   406A      4.224810   407A      4.234574  
     408A      4.255476   409A      4.264864   410A      4.278079  
     411A      4.287284   412A      4.315689   413A      4.336253  
     414A      4.365167   415A      4.367999   416A      4.376923  
     417A      4.402583   418A      4.428668   419A      4.439993  
     420A      4.456850   421A      4.487478   422A      4.501544  
     423A      4.511576   424A      4.529809   425A      4.539924  
     426A      4.573037   427A      4.579197   428A      4.598858  
     429A      4.602695   430A      4.623291   431A      4.639968  
     432A      4.669575   433A      4.692681   434A      4.705687  
     435A      4.718711   436A      4.753531   437A      4.755047  
     438A      4.779498   439A      4.792631   440A      4.800398  
     441A      4.831449   442A      4.851147   443A      4.861893  
     444A      4.889226   445A      4.892086   446A      4.903813  
     447A      4.922916   448A      4.933962   449A      4.944018  
     450A      4.960686   451A      4.972666   452A      4.994408  
     453A      5.007115   454A      5.027101   455A      5.028963  
     456A      5.068570   457A      5.082784   458A      5.097851  
     459A      5.107304   460A      5.129559   461A      5.156635  
     462A      5.165173   463A      5.174593   464A      5.189889  
     465A      5.193312   466A      5.227398   467A      5.250034  
     468A      5.256305   469A      5.266930   470A      5.294617  
     471A      5.324007   472A      5.342582   473A      5.364346  
     474A      5.371204   475A      5.384077   476A      5.412465  
     477A      5.446694   478A      5.457846   479A      5.495687  
     480A      5.518732   481A      5.527673   482A      5.537794  
     483A      5.560516   484A      5.574098   485A      5.597529  
     486A      5.607612   487A      5.636580   488A      5.659843  
     489A      5.683718   490A      5.706765   491A      5.728799  
     492A      5.741526   493A      5.768715   494A      5.802140  
     495A      5.814416   496A      5.843316   497A      5.868750  
     498A      5.890081   499A      6.021494   500A      6.026243  
     501A      6.051854   502A      6.100461   503A      6.139753  
     504A      6.165021   505A      6.174861   506A      6.200059  
     507A      6.210842   508A      6.252552   509A      6.278506  
     510A      6.295402   511A      6.326758   512A      6.394784  
     513A      6.408860   514A      6.442064   515A      6.713085  
     516A      6.716931   517A      6.735201   518A      6.787328  
     519A      6.849510   520A      6.874827   521A      6.883774  
     522A      6.914366   523A      6.996305   524A      7.024008  
     525A      7.083218   526A      7.135770   527A      7.207289  
     528A      7.229585   529A      7.336270   530A      7.351555  
     531A      7.497388   532A      7.515895   533A      7.540483  
     534A      7.553802   535A      7.602225   536A      7.632474  
     537A      7.667487   538A      7.719991   539A      7.849603  
     540A      7.942246   541A      8.001558   542A      8.063033  
     543A      8.269658   544A      8.328597   545A      8.668312  
     546A      8.715534   547A     16.162206   548A     17.247961  
     549A     17.772615   550A     18.092929   551A     18.465055  
     552A     18.728635  

    Final Occupation by Irrep:
              A 
    DOCC [    26 ]
    NA   [    26 ]
    NB   [    26 ]

  @DF-RHF Final Energy:  -308.29418237168767

   => Energetics <=

    Nuclear Repulsion Energy =            259.5498692463590942
    One-Electron Energy =                -935.1491298338439719
    Two-Electron Energy =                 367.3050782157972094
    Total Energy =                       -308.2941823716876684

Computation Completed


Properties will be evaluated at   0.000000,   0.000000,   0.000000 [a0]

Properties computed using the SCF density matrix


 Multipole Moments:

 ------------------------------------------------------------------------------------
     Multipole            Electronic (a.u.)      Nuclear  (a.u.)        Total (a.u.)
 ------------------------------------------------------------------------------------

 L = 1.  Multiply by 2.5417464519 to convert [e a0] to [Debye]
 Dipole X            :          0.8355886            0.0000076            0.8355962
 Dipole Y            :         -0.0874143            0.0000076           -0.0874068
 Dipole Z            :          0.5386707           -0.0000076            0.5386631
 Magnitude           :                                                    0.9980075

 ------------------------------------------------------------------------------------

*** tstop() called on Moses-MBP.lan at Thu Feb 27 17:12:01 2025
Module time:
	user time   =      88.10 seconds =       1.47 minutes
	system time =       7.06 seconds =       0.12 minutes
	total time  =         12 seconds =       0.20 minutes
Total time:
	user time   =     272.81 seconds =       4.55 minutes
	system time =      21.96 seconds =       0.37 minutes
	total time  =         37 seconds =       0.62 minutes

*** tstart() called on Moses-MBP.lan
*** at Thu Feb 27 17:12:01 2025


  //>>>>>>>>>>>>>>>>>>>>>>>>>>>>>>>>>>>//
  //               DFMP2               //
  //<<<<<<<<<<<<<<<<<<<<<<<<<<<<<<<<<<<//

   => Loading Basis Set <=

    Name: (AUG-CC-PVTZ AUX)
    Role: RIFIT
    Keyword: DF_BASIS_MP2
    atoms 1-2, 10-11 entry C          line   148 file /Users/moseschung/miniconda3/envs/psi4/share/psi4/basis/aug-cc-pvtz-ri.gbs 
    atoms 3, 12      entry O          line   264 file /Users/moseschung/miniconda3/envs/psi4/share/psi4/basis/aug-cc-pvtz-ri.gbs 
    atoms 4-9, 13-18 entry H          line    30 file /Users/moseschung/miniconda3/envs/psi4/share/psi4/basis/aug-cc-pvtz-ri.gbs 

	 --------------------------------------------------------
	                          DF-MP2                         
	      2nd-Order Density-Fitted Moller-Plesset Theory     
	              RMP2 Wavefunction,  10 Threads             
	                                                         
	        Rob Parrish, Justin Turney, Andy Simmonett,      
	           Ed Hohenstein, and C. David Sherrill          
	 --------------------------------------------------------

   => Auxiliary Basis Set <=

  Basis Set: (AUG-CC-PVTZ AUX)
    Blend: AUG-CC-PVTZ-RI
    Number of shells: 336
    Number of basis functions: 1188
    Number of Cartesian functions: 1476
    Spherical Harmonics?: true
    Max angular momentum: 4

	 --------------------------------------------------------
	                 NBF =   552, NAUX =  1188
	 --------------------------------------------------------
	   CLASS    FOCC     OCC    AOCC    AVIR     VIR    FVIR
	   PAIRS       0      26      26     526     526       0
	 --------------------------------------------------------

	-----------------------------------------------------------
	 ==================> DF-MP2 Energies <==================== 
	-----------------------------------------------------------
	 Reference Energy          =    -308.2941823716876684 [Eh]
	 Singles Energy            =      -0.0000000000000000 [Eh]
	 Same-Spin Energy          =      -0.2999182771597871 [Eh]
	 Opposite-Spin Energy      =      -1.0402634665069650 [Eh]
	 Correlation Energy        =      -1.3401817436667520 [Eh]
	 Total Energy              =    -309.6343641153544013 [Eh]
	-----------------------------------------------------------
	 ================> DF-SCS-MP2 Energies <================== 
	-----------------------------------------------------------
	 SCS Same-Spin Scale       =       0.3333333333333333 [-]
	 SCS Opposite-Spin Scale   =       1.2000000000000000 [-]
	 SCS Same-Spin Energy      =      -0.0999727590532624 [Eh]
	 SCS Opposite-Spin Energy  =      -1.2483161598083579 [Eh]
	 SCS Correlation Energy    =      -1.3482889188616203 [Eh]
	 SCS Total Energy          =    -309.6424712905492811 [Eh]
	-----------------------------------------------------------


*** tstop() called on Moses-MBP.lan at Thu Feb 27 17:12:06 2025
Module time:
	user time   =      32.65 seconds =       0.54 minutes
	system time =       3.04 seconds =       0.05 minutes
	total time  =          5 seconds =       0.08 minutes
Total time:
	user time   =     305.46 seconds =       5.09 minutes
	system time =      25.00 seconds =       0.42 minutes
	total time  =         42 seconds =       0.70 minutes

    Psi4 stopped on: Thursday, 27 February 2025 05:12PM
    Psi4 wall time for execution: 0:00:17.34


  //>>>>>>>>>>>>>>>>>>>>>>>>>>>>>>>>>>>//
  //          ManyBody Results         //
  //<<<<<<<<<<<<<<<<<<<<<<<<<<<<<<<<<<<//


   ==> N-Body: Counterpoise Corrected (CP) energies <==

        n-Body     Total Energy            Interaction Energy                          N-body Contribution to Interaction Energy
                   [Eh]                    [Eh]                  [kcal/mol]            [Eh]                  [kcal/mol]
             1  N/A                         0.000000000000        0.000000000000        0.000000000000        0.000000000000
  FULL/RTN   2  N/A                        -0.009973650232       -6.258560008928       -0.009973650232       -6.258560008928


    Psi4 stopped on: Thursday, 27 February 2025 05:12PM
    Psi4 wall time for execution: 0:00:44.03

*** Psi4 exiting successfully. Buy a developer a beer!
