
    -----------------------------------------------------------------------
          Psi4: An Open-Source Ab Initio Electronic Structure Package
                               Psi4 1.9.1 release

                         Git: Rev {} zzzzzzz 


    D. G. A. Smith, L. A. Burns, A. C. Simmonett, R. M. Parrish,
    M. C. Schieber, R. Galvelis, P. Kraus, H. Kruse, R. Di Remigio,
    A. Alenaizan, A. M. James, S. Lehtola, J. P. Misiewicz, M. Scheurer,
    R. A. Shaw, J. B. Schriber, Y. Xie, Z. L. Glick, D. A. Sirianni,
    J. S. O'Brien, J. M. Waldrop, A. Kumar, E. G. Hohenstein,
    B. P. Pritchard, B. R. Brooks, H. F. Schaefer III, A. Yu. Sokolov,
    K. Patkowski, A. E. DePrince III, U. Bozkaya, R. A. King,
    F. A. Evangelista, J. M. Turney, T. D. Crawford, C. D. Sherrill,
    J. Chem. Phys. 152(18) 184108 (2020). https://doi.org/10.1063/5.0006002

                            Additional Code Authors
    E. T. Seidl, C. L. Janssen, E. F. Valeev, M. L. Leininger,
    J. F. Gonthier, R. M. Richard, H. R. McAlexander, M. Saitow, X. Wang,
    P. Verma, M. H. Lechner, A. Jiang, S. Behnle, A. G. Heide,
    M. F. Herbst, and D. L. Poole

             Previous Authors, Complete List of Code Contributors,
                       and Citations for Specific Modules
    https://github.com/psi4/psi4/blob/master/codemeta.json
    https://github.com/psi4/psi4/graphs/contributors
    http://psicode.org/psi4manual/master/introduction.html#citing-psifour

    -----------------------------------------------------------------------


    Psi4 started on: Thursday, 27 February 2025 05:13PM

    Process ID: 30348
    Host:       Moses-MBP.lan
    PSIDATADIR: /Users/moseschung/miniconda3/envs/psi4/share/psi4
    Memory:     500.0 MiB
    Threads:    10
    
  ==> Input File <==

--------------------------------------------------------------------------
MEMORY 10 GB

molecule dimer {
0 1
C   -3.049734   0.433855  -0.130178
C   -1.633731  -0.001616  -0.395745
O   -1.023983  -0.564458   0.756160
H   -1.565757  -1.295725   1.065474
H   -3.486902   0.899170  -1.015473
H   -3.085027   1.151817   0.691144
H   -3.679000  -0.420016   0.137809
H   -1.005772   0.849745  -0.670117
H   -1.589027  -0.707903  -1.234970
--
0 1
C    1.930412   1.262100   0.117611
C    2.458001  -0.151473   0.050541
O    1.519197  -1.052955  -0.474116
H    0.716443  -0.998360   0.066641
H    2.685782   1.951509   0.501544
H    1.060123   1.315122   0.778646
H    1.625976   1.603140  -0.874944
H    2.798071  -0.468570   1.048537
H    3.333683  -0.197821  -0.604014

units ang
no_reorient
no_com
symmetry c1
}

set {
basis        aug-cc-pVTZ
scf_type     df
}

energy("mp2", bsse_type="cp")
--------------------------------------------------------------------------

  Memory set to   9.313 GiB by Python driver.

Scratch directory: /tmp/

  //>>>>>>>>>>>>>>>>>>>>>>>>>>>>>>>>>>>>>//
  // ManyBody Setup: N-Body Levels [1, 2]//
  //<<<<<<<<<<<<<<<<<<<<<<<<<<<<<<<<<<<<<//

        Number of 1-body computations:     2
        Number of 2-body computations:     1

    -----------------------------------------------------------------------
          Psi4: An Open-Source Ab Initio Electronic Structure Package
                               Psi4 1.9.1 release

                         Git: Rev {} zzzzzzz 


    D. G. A. Smith, L. A. Burns, A. C. Simmonett, R. M. Parrish,
    M. C. Schieber, R. Galvelis, P. Kraus, H. Kruse, R. Di Remigio,
    A. Alenaizan, A. M. James, S. Lehtola, J. P. Misiewicz, M. Scheurer,
    R. A. Shaw, J. B. Schriber, Y. Xie, Z. L. Glick, D. A. Sirianni,
    J. S. O'Brien, J. M. Waldrop, A. Kumar, E. G. Hohenstein,
    B. P. Pritchard, B. R. Brooks, H. F. Schaefer III, A. Yu. Sokolov,
    K. Patkowski, A. E. DePrince III, U. Bozkaya, R. A. King,
    F. A. Evangelista, J. M. Turney, T. D. Crawford, C. D. Sherrill,
    J. Chem. Phys. 152(18) 184108 (2020). https://doi.org/10.1063/5.0006002

                            Additional Code Authors
    E. T. Seidl, C. L. Janssen, E. F. Valeev, M. L. Leininger,
    J. F. Gonthier, R. M. Richard, H. R. McAlexander, M. Saitow, X. Wang,
    P. Verma, M. H. Lechner, A. Jiang, S. Behnle, A. G. Heide,
    M. F. Herbst, and D. L. Poole

             Previous Authors, Complete List of Code Contributors,
                       and Citations for Specific Modules
    https://github.com/psi4/psi4/blob/master/codemeta.json
    https://github.com/psi4/psi4/graphs/contributors
    http://psicode.org/psi4manual/master/introduction.html#citing-psifour

    -----------------------------------------------------------------------


    Psi4 started on: Thursday, 27 February 2025 05:13PM

    Process ID: 30348
    Host:       Moses-MBP.lan
    PSIDATADIR: /Users/moseschung/miniconda3/envs/psi4/share/psi4
    Memory:     9.3 GiB
    Threads:    10
    
  ==> Input QCSchema <==

--------------------------------------------------------------------------
{'driver': 'energy',
 'extras': {'psiapi': True, 'wfn_qcvars_only': True},
 'id': None,
 'keywords': {'SCF_TYPE': 'DF', 'function_kwargs': {}},
 'model': {'basis': 'aug-cc-pvtz', 'method': 'mp2'},
 'molecule': {'atom_labels': ['', '', '', '', '', '', '', '', '', '', '', '', '', '', '', '', '', ''],
              'atomic_numbers': [6, 6, 8, 1, 1, 1, 1, 1, 1, 6, 6, 8, 1, 1, 1, 1, 1, 1],
              'extras': {},
              'fix_com': True,
              'fix_orientation': True,
              'fix_symmetry': 'c1',
              'fragment_charges': [0.0, 0.0],
              'fragment_multiplicities': [1, 1],
              'fragments': [[0, 1, 2, 3, 4, 5, 6, 7, 8], [9, 10, 11, 12, 13, 14, 15, 16, 17]],
              'geometry': [-5.763162015497004, 0.819867128160506, -0.24600076755984912, -3.087304152670343,
                           -0.0030537974187398505, -0.7478496655193082, -1.9350474271246834, -1.0666710293236747,
                           1.4289353070261914, -2.9588519090184726, -2.4485653839088446, 2.013454053796054,
                           -6.589289806311152, 1.6991850402279154, -1.9189658577970372, -5.829856119642788,
                           2.1766186766464592, 1.3060728732534252, -6.952302415559349, -0.7937152083102952,
                           0.2604212676232178, -1.900633624653971, 1.6057853264771622, -1.2663376020134234,
                           -3.0028258359578763, -1.3377427933899728, -2.333755073156653, 3.647949989297297,
                           2.385023342940325, 0.2222525793412206, 4.6449487061014665, -0.2862424854014736,
                           0.0955086481067641, 2.8708662606171553, -1.9897965724314477, -0.8959493916975636,
                           1.3538810545013829, -1.8866269746120774, 0.12593323872663514, 5.075392412684377,
                           3.6878175413660808, 0.9477807998666209, 2.003342129298729, 2.4852204015643498,
                           1.471427688683236, 3.0726493265674177, 3.0294955407664625, -1.6534045351125741,
                           5.287587869585911, -0.8854689706057745, 1.9814477624091749, 6.299747859094629,
                           -0.373827511864193, -1.1414210359422847],
              'mass_numbers': [12, 12, 16, 1, 1, 1, 1, 1, 1, 12, 12, 16, 1, 1, 1, 1, 1, 1],
              'masses': [12.0, 12.0, 15.99491461957, 1.00782503223, 1.00782503223, 1.00782503223, 1.00782503223,
                         1.00782503223, 1.00782503223, 12.0, 12.0, 15.99491461957, 1.00782503223, 1.00782503223,
                         1.00782503223, 1.00782503223, 1.00782503223, 1.00782503223],
              'molecular_charge': 0.0,
              'molecular_multiplicity': 1,
              'name': 'dimer',
              'provenance': {'creator': 'QCElemental',
                             'routine': 'qcelemental.molparse.from_string',
                             'version': '0.29.0'},
              'real': [False, False, False, False, False, False, False, False, False, True, True, True, True, True,
                       True, True, True, True],
              'schema_name': 'qcschema_molecule',
              'schema_version': 2,
              'symbols': ['C', 'C', 'O', 'H', 'H', 'H', 'H', 'H', 'H', 'C', 'C', 'O', 'H', 'H', 'H', 'H', 'H', 'H'],
              'validated': True},
 'protocols': {'stdout': True},
 'provenance': {'creator': 'QCElemental', 'routine': 'qcelemental.models.results', 'version': '0.29.0'},
 'schema_name': 'qcschema_input',
 'schema_version': 1}
--------------------------------------------------------------------------

Scratch directory: /tmp/
   => Libint2 <=

    Primary   basis highest AM E, G, H:  6, 6, 3
    Auxiliary basis highest AM E, G, H:  7, 7, 4
    Onebody   basis highest AM E, G, H:  -, -, -
    Solid Harmonics ordering:            Gaussian

*** tstart() called on Moses-MBP.lan
*** at Thu Feb 27 17:13:37 2025

   => Loading Basis Set <=

    Name: AUG-CC-PVTZ
    Role: ORBITAL
    Keyword: BASIS
    atoms 1-2, 10-11 entry C          line   239 file /Users/moseschung/miniconda3/envs/psi4/share/psi4/basis/aug-cc-pvtz.gbs 
    atoms 3, 12      entry O          line   331 file /Users/moseschung/miniconda3/envs/psi4/share/psi4/basis/aug-cc-pvtz.gbs 
    atoms 4-9, 13-18 entry H          line    40 file /Users/moseschung/miniconda3/envs/psi4/share/psi4/basis/aug-cc-pvtz.gbs 


         ---------------------------------------------------------
                                   SCF
               by Justin Turney, Rob Parrish, Andy Simmonett
                          and Daniel G. A. Smith
                              RHF Reference
                       10 Threads,   9536 MiB Core
         ---------------------------------------------------------

  ==> Geometry <==

    Molecular point group: c1
    Full point group: C1

    Geometry (in Bohr), charge = 0, multiplicity = 1:

       Center              X                  Y                   Z               Mass       
    ------------   -----------------  -----------------  -----------------  -----------------
      Gh(C)          -5.763162015497     0.819867128161    -0.246000767560    12.000000000000
      Gh(C)          -3.087304152670    -0.003053797419    -0.747849665519    12.000000000000
      Gh(O)          -1.935047427125    -1.066671029324     1.428935307026    15.994914619570
      Gh(H)          -2.958851909018    -2.448565383909     2.013454053796     1.007825032230
      Gh(H)          -6.589289806311     1.699185040228    -1.918965857797     1.007825032230
      Gh(H)          -5.829856119643     2.176618676646     1.306072873253     1.007825032230
      Gh(H)          -6.952302415559    -0.793715208310     0.260421267623     1.007825032230
      Gh(H)          -1.900633624654     1.605785326477    -1.266337602013     1.007825032230
      Gh(H)          -3.002825835958    -1.337742793390    -2.333755073157     1.007825032230
         C            3.647949989297     2.385023342940     0.222252579341    12.000000000000
         C            4.644948706101    -0.286242485401     0.095508648107    12.000000000000
         O            2.870866260617    -1.989796572431    -0.895949391698    15.994914619570
         H            1.353881054501    -1.886626974612     0.125933238727     1.007825032230
         H            5.075392412684     3.687817541366     0.947780799867     1.007825032230
         H            2.003342129299     2.485220401564     1.471427688683     1.007825032230
         H            3.072649326567     3.029495540766    -1.653404535113     1.007825032230
         H            5.287587869586    -0.885468970606     1.981447762409     1.007825032230
         H            6.299747859095    -0.373827511864    -1.141421035942     1.007825032230

  Running in c1 symmetry.

  Rotational constants: A =      0.20582  B =      0.04116  C =      0.03780 [cm^-1]
  Rotational constants: A =   6170.38003  B =   1233.94416  C =   1133.19568 [MHz]
  Nuclear repulsion =   82.194183529415398

  Charge       = 0
  Multiplicity = 1
  Electrons    = 26
  Nalpha       = 13
  Nbeta        = 13

  ==> Algorithm <==

  SCF Algorithm Type is DF.
  DIIS enabled.
  MOM disabled.
  Fractional occupation disabled.
  Guess Type is SAD.
  Energy threshold   = 1.00e-08
  Density threshold  = 1.00e-08
  Integral threshold = 1.00e-12

  ==> Primary Basis <==

  Basis Set: AUG-CC-PVTZ
    Blend: AUG-CC-PVTZ
    Number of shells: 192
    Number of basis functions: 552
    Number of Cartesian functions: 630
    Spherical Harmonics?: true
    Max angular momentum: 3

   => Loading Basis Set <=

    Name: (AUG-CC-PVTZ AUX)
    Role: JKFIT
    Keyword: DF_BASIS_SCF
    atoms 1-2, 10-11 entry C          line   162 file /Users/moseschung/miniconda3/envs/psi4/share/psi4/basis/aug-cc-pvtz-jkfit.gbs 
    atoms 3, 12      entry O          line   286 file /Users/moseschung/miniconda3/envs/psi4/share/psi4/basis/aug-cc-pvtz-jkfit.gbs 
    atoms 4-9, 13-18 entry H          line    70 file /Users/moseschung/miniconda3/envs/psi4/share/psi4/basis/aug-cc-pvtz-jkfit.gbs 

  ==> Integral Setup <==

  DFHelper Memory: AOs need 2.591 GiB; user supplied 6.985 GiB. 
  Using in-core AOs.

  ==> MemDFJK: Density-Fitted J/K Matrices <==

    J tasked:                   Yes
    K tasked:                   Yes
    wK tasked:                   No
    OpenMP threads:              10
    Memory [MiB]:              7152
    Algorithm:                 Core
    Schwarz Cutoff:           1E-12
    Mask sparsity (%):       6.4915
    Fitting Condition:        1E-10

   => Auxiliary Basis Set <=

  Basis Set: (AUG-CC-PVTZ AUX)
    Blend: AUG-CC-PVTZ-JKFIT
    Number of shells: 348
    Number of basis functions: 1176
    Number of Cartesian functions: 1446
    Spherical Harmonics?: true
    Max angular momentum: 4

  Minimum eigenvalue in the overlap matrix is 1.0743632365E-05.
  Reciprocal condition number of the overlap matrix is 5.8933816196E-07.
    Using symmetric orthogonalization.

  ==> Pre-Iterations <==

  SCF Guess: Superposition of Atomic Densities via on-the-fly atomic UHF (no occupation information).

   -------------------------
    Irrep   Nso     Nmo    
   -------------------------
     A        552     552 
   -------------------------
    Total     552     552
   -------------------------

  ==> Iterations <==

                           Total Energy        Delta E     RMS |[F,P]|

   @DF-RHF iter SAD:  -153.46044699058237   -1.53460e+02   0.00000e+00 
   @DF-RHF iter   1:  -154.00289676061590   -5.42450e-01   9.36553e-04 ADIIS/DIIS
   @DF-RHF iter   2:  -154.11484449005400   -1.11948e-01   4.95463e-04 ADIIS/DIIS
   @DF-RHF iter   3:  -154.14286388409195   -2.80194e-02   8.39507e-05 DIIS
   @DF-RHF iter   4:  -154.14445001106355   -1.58613e-03   3.21897e-05 DIIS
   @DF-RHF iter   5:  -154.14463759914238   -1.87588e-04   6.26036e-06 DIIS
   @DF-RHF iter   6:  -154.14464812540911   -1.05263e-05   1.45588e-06 DIIS
   @DF-RHF iter   7:  -154.14464889845181   -7.73043e-07   4.18264e-07 DIIS
   @DF-RHF iter   8:  -154.14464895753804   -5.90862e-08   1.32265e-07 DIIS
   @DF-RHF iter   9:  -154.14464896409885   -6.56081e-09   3.38452e-08 DIIS
   @DF-RHF iter  10:  -154.14464896455243   -4.53582e-10   6.47058e-09 DIIS
  Energy and wave function converged.


  ==> Post-Iterations <==

    Orbital Energies [Eh]
    ---------------------

    Doubly Occupied:                                                      

       1A    -20.557134     2A    -11.273170     3A    -11.218364  
       4A     -1.363260     5A     -1.013264     6A     -0.847702  
       7A     -0.686891     8A     -0.627179     9A     -0.612389  
      10A     -0.543817    11A     -0.527200    12A     -0.480314  
      13A     -0.441663  

    Virtual:                                                              

      14A      0.020052    15A      0.032874    16A      0.035789  
      17A      0.039043    18A      0.048989    19A      0.050047  
      20A      0.051879    21A      0.064970    22A      0.072704  
      23A      0.075789    24A      0.077631    25A      0.082558  
      26A      0.091129    27A      0.111027    28A      0.113200  
      29A      0.117655    30A      0.121253    31A      0.125960  
      32A      0.128640    33A      0.135938    34A      0.139563  
      35A      0.143161    36A      0.150424    37A      0.151949  
      38A      0.160345    39A      0.176234    40A      0.183590  
      41A      0.186942    42A      0.190052    43A      0.200658  
      44A      0.212278    45A      0.220779    46A      0.227161  
      47A      0.236111    48A      0.246456    49A      0.255203  
      50A      0.258614    51A      0.265872    52A      0.272387  
      53A      0.279289    54A      0.286564    55A      0.293632  
      56A      0.299347    57A      0.302222    58A      0.308482  
      59A      0.315306    60A      0.316568    61A      0.325027  
      62A      0.325641    63A      0.335558    64A      0.340615  
      65A      0.344799    66A      0.356138    67A      0.358146  
      68A      0.367754    69A      0.369532    70A      0.371778  
      71A      0.378330    72A      0.383064    73A      0.392886  
      74A      0.395293    75A      0.399197    76A      0.406855  
      77A      0.407901    78A      0.413468    79A      0.418478  
      80A      0.429966    81A      0.430565    82A      0.435458  
      83A      0.441255    84A      0.447684    85A      0.455117  
      86A      0.460526    87A      0.463731    88A      0.481126  
      89A      0.483063    90A      0.485681    91A      0.487522  
      92A      0.492298    93A      0.505141    94A      0.510114  
      95A      0.520417    96A      0.523584    97A      0.526361  
      98A      0.534094    99A      0.536082   100A      0.540001  
     101A      0.542022   102A      0.550294   103A      0.567883  
     104A      0.573846   105A      0.578247   106A      0.586645  
     107A      0.597648   108A      0.599631   109A      0.604589  
     110A      0.609866   111A      0.616862   112A      0.628659  
     113A      0.636112   114A      0.644701   115A      0.649418  
     116A      0.652934   117A      0.663023   118A      0.664480  
     119A      0.677817   120A      0.691260   121A      0.704032  
     122A      0.711049   123A      0.715712   124A      0.730732  
     125A      0.741805   126A      0.749292   127A      0.768973  
     128A      0.782482   129A      0.796480   130A      0.801963  
     131A      0.805795   132A      0.811626   133A      0.831354  
     134A      0.837683   135A      0.854937   136A      0.866594  
     137A      0.877458   138A      0.881386   139A      0.893981  
     140A      0.899952   141A      0.902045   142A      0.913037  
     143A      0.918698   144A      0.921533   145A      0.929008  
     146A      0.944871   147A      0.947016   148A      0.966902  
     149A      0.975521   150A      0.981599   151A      0.985854  
     152A      0.991249   153A      0.999554   154A      1.005627  
     155A      1.009926   156A      1.021651   157A      1.029335  
     158A      1.035437   159A      1.039990   160A      1.046028  
     161A      1.054493   162A      1.061110   163A      1.067369  
     164A      1.072941   165A      1.080386   166A      1.093799  
     167A      1.098469   168A      1.101358   169A      1.109938  
     170A      1.115309   171A      1.123563   172A      1.130833  
     173A      1.139500   174A      1.145864   175A      1.149024  
     176A      1.157379   177A      1.162773   178A      1.166234  
     179A      1.170426   180A      1.178049   181A      1.192487  
     182A      1.200436   183A      1.202071   184A      1.213612  
     185A      1.219706   186A      1.225401   187A      1.226652  
     188A      1.248186   189A      1.250630   190A      1.253569  
     191A      1.258073   192A      1.267298   193A      1.273083  
     194A      1.281742   195A      1.292334   196A      1.296406  
     197A      1.308965   198A      1.317681   199A      1.324166  
     200A      1.327631   201A      1.342883   202A      1.344113  
     203A      1.357782   204A      1.368889   205A      1.378544  
     206A      1.387445   207A      1.397403   208A      1.402222  
     209A      1.407587   210A      1.428430   211A      1.432539  
     212A      1.440629   213A      1.442701   214A      1.445788  
     215A      1.451815   216A      1.474072   217A      1.476751  
     218A      1.487454   219A      1.497184   220A      1.507421  
     221A      1.518197   222A      1.524443   223A      1.534672  
     224A      1.565766   225A      1.579465   226A      1.587568  
     227A      1.598342   228A      1.607358   229A      1.611051  
     230A      1.635536   231A      1.640684   232A      1.647918  
     233A      1.657348   234A      1.671984   235A      1.677401  
     236A      1.686102   237A      1.699423   238A      1.708664  
     239A      1.714900   240A      1.719077   241A      1.734566  
     242A      1.746928   243A      1.752178   244A      1.761905  
     245A      1.774300   246A      1.794325   247A      1.802520  
     248A      1.814703   249A      1.825376   250A      1.832393  
     251A      1.839135   252A      1.854682   253A      1.870583  
     254A      1.879245   255A      1.887460   256A      1.892091  
     257A      1.899941   258A      1.919627   259A      1.927176  
     260A      1.946265   261A      1.957880   262A      1.961620  
     263A      1.982785   264A      1.987110   265A      2.003616  
     266A      2.006260   267A      2.030606   268A      2.043828  
     269A      2.046853   270A      2.056082   271A      2.070165  
     272A      2.073272   273A      2.079689   274A      2.099134  
     275A      2.115235   276A      2.134172   277A      2.135195  
     278A      2.147496   279A      2.165111   280A      2.180406  
     281A      2.187274   282A      2.220154   283A      2.226047  
     284A      2.238499   285A      2.255559   286A      2.263936  
     287A      2.276177   288A      2.287192   289A      2.300219  
     290A      2.318322   291A      2.324491   292A      2.344466  
     293A      2.352951   294A      2.363943   295A      2.385780  
     296A      2.414988   297A      2.419248   298A      2.432558  
     299A      2.446576   300A      2.465133   301A      2.470783  
     302A      2.476427   303A      2.516525   304A      2.535178  
     305A      2.562862   306A      2.591761   307A      2.617357  
     308A      2.654285   309A      2.686424   310A      2.711980  
     311A      2.722258   312A      2.730249   313A      2.754958  
     314A      2.767689   315A      2.781896   316A      2.797622  
     317A      2.809580   318A      2.841315   319A      2.856181  
     320A      2.872099   321A      2.892111   322A      2.919183  
     323A      2.940028   324A      2.971407   325A      3.005842  
     326A      3.021068   327A      3.057031   328A      3.084151  
     329A      3.116398   330A      3.126522   331A      3.154092  
     332A      3.179086   333A      3.204316   334A      3.220129  
     335A      3.261369   336A      3.304153   337A      3.315589  
     338A      3.355396   339A      3.364247   340A      3.387911  
     341A      3.428418   342A      3.447220   343A      3.488575  
     344A      3.512449   345A      3.522554   346A      3.555539  
     347A      3.568189   348A      3.632836   349A      3.639264  
     350A      3.648576   351A      3.662581   352A      3.679211  
     353A      3.703092   354A      3.711609   355A      3.740944  
     356A      3.767433   357A      3.781523   358A      3.797049  
     359A      3.821040   360A      3.860033   361A      3.870120  
     362A      3.889224   363A      3.926783   364A      3.952821  
     365A      3.960436   366A      3.988507   367A      3.990002  
     368A      4.011155   369A      4.040255   370A      4.065616  
     371A      4.083976   372A      4.094217   373A      4.129311  
     374A      4.135401   375A      4.152269   376A      4.162461  
     377A      4.184447   378A      4.199874   379A      4.208293  
     380A      4.231169   381A      4.240828   382A      4.247289  
     383A      4.266701   384A      4.276531   385A      4.300868  
     386A      4.305607   387A      4.333490   388A      4.338686  
     389A      4.345217   390A      4.378198   391A      4.387881  
     392A      4.407605   393A      4.448151   394A      4.450283  
     395A      4.465047   396A      4.485624   397A      4.489142  
     398A      4.514170   399A      4.548560   400A      4.553869  
     401A      4.583204   402A      4.595746   403A      4.603452  
     404A      4.620064   405A      4.634132   406A      4.656023  
     407A      4.661566   408A      4.669797   409A      4.689563  
     410A      4.692842   411A      4.716390   412A      4.719738  
     413A      4.743879   414A      4.774258   415A      4.784597  
     416A      4.794444   417A      4.838714   418A      4.848008  
     419A      4.867724   420A      4.880542   421A      4.885378  
     422A      4.902494   423A      4.920344   424A      4.933560  
     425A      4.953321   426A      4.958316   427A      4.975391  
     428A      4.994875   429A      5.001181   430A      5.040047  
     431A      5.043141   432A      5.052605   433A      5.055554  
     434A      5.080643   435A      5.097115   436A      5.133993  
     437A      5.165037   438A      5.174671   439A      5.184398  
     440A      5.208400   441A      5.230688   442A      5.250819  
     443A      5.262833   444A      5.283920   445A      5.291596  
     446A      5.335408   447A      5.346819   448A      5.368871  
     449A      5.381498   450A      5.394896   451A      5.402528  
     452A      5.409412   453A      5.434828   454A      5.449445  
     455A      5.488600   456A      5.498833   457A      5.508507  
     458A      5.531329   459A      5.554761   460A      5.564904  
     461A      5.568137   462A      5.608219   463A      5.618306  
     464A      5.640264   465A      5.661887   466A      5.681871  
     467A      5.697728   468A      5.711836   469A      5.714414  
     470A      5.741628   471A      5.769862   472A      5.777628  
     473A      5.794861   474A      5.806879   475A      5.832625  
     476A      5.863706   477A      5.890190   478A      5.961802  
     479A      6.000353   480A      6.017671   481A      6.064658  
     482A      6.083979   483A      6.132299   484A      6.141426  
     485A      6.163173   486A      6.180713   487A      6.229442  
     488A      6.242035   489A      6.269933   490A      6.292485  
     491A      6.301463   492A      6.375733   493A      6.400750  
     494A      6.478601   495A      6.543871   496A      6.699493  
     497A      6.729637   498A      6.774030   499A      6.835977  
     500A      6.858411   501A      6.875343   502A      6.944290  
     503A      6.985562   504A      7.011081   505A      7.022970  
     506A      7.025106   507A      7.103156   508A      7.186645  
     509A      7.200463   510A      7.373769   511A      7.420370  
     512A      7.434511   513A      7.541809   514A      7.558644  
     515A      7.671430   516A      7.792239   517A      7.821604  
     518A      7.855184   519A      7.874331   520A      7.892822  
     521A      7.944143   522A      7.957717   523A      8.031042  
     524A      8.055783   525A      8.167697   526A      8.196371  
     527A      8.291513   528A      8.314687   529A      8.329524  
     530A      8.387329   531A      8.431436   532A      8.585963  
     533A      8.691513   534A      8.872096   535A      9.107345  
     536A     10.045228   537A     10.139797   538A     10.232417  
     539A     10.429670   540A     10.701835   541A     10.759960  
     542A     11.035879   543A     12.121430   544A     12.533953  
     545A     13.299792   546A     14.117866   547A     16.881770  
     548A     17.764016   549A     18.565637   550A     53.090174  
     551A     54.678781   552A     67.063598  

    Final Occupation by Irrep:
              A 
    DOCC [    13 ]
    NA   [    13 ]
    NB   [    13 ]

  @DF-RHF Final Energy:  -154.14464896455243

   => Energetics <=

    Nuclear Repulsion Energy =             82.1941835294153975
    One-Electron Energy =                -372.2929692671697808
    Two-Electron Energy =                 135.9541367732019523
    Total Energy =                       -154.1446489645524309

Computation Completed


Properties will be evaluated at   0.000000,   0.000000,   0.000000 [a0]

Properties computed using the SCF density matrix


 Multipole Moments:

 ------------------------------------------------------------------------------------
     Multipole            Electronic (a.u.)      Nuclear  (a.u.)        Total (a.u.)
 ------------------------------------------------------------------------------------

 L = 1.  Multiply by 2.5417464519 to convert [e a0] to [Debye]
 Dipole X            :        -95.9018721           95.8169229           -0.0849492
 Dipole Y            :         -2.2738190            2.7309226            0.4571036
 Dipole Z            :          4.0624883           -3.5292639            0.5332244
 Magnitude           :                                                    0.7074520

 ------------------------------------------------------------------------------------

*** tstop() called on Moses-MBP.lan at Thu Feb 27 17:13:47 2025
Module time:
	user time   =      70.01 seconds =       1.17 minutes
	system time =       7.00 seconds =       0.12 minutes
	total time  =         10 seconds =       0.17 minutes
Total time:
	user time   =      70.01 seconds =       1.17 minutes
	system time =       7.00 seconds =       0.12 minutes
	total time  =         10 seconds =       0.17 minutes

*** tstart() called on Moses-MBP.lan
*** at Thu Feb 27 17:13:47 2025


  //>>>>>>>>>>>>>>>>>>>>>>>>>>>>>>>>>>>//
  //               DFMP2               //
  //<<<<<<<<<<<<<<<<<<<<<<<<<<<<<<<<<<<//

   => Loading Basis Set <=

    Name: (AUG-CC-PVTZ AUX)
    Role: RIFIT
    Keyword: DF_BASIS_MP2
    atoms 1-2, 10-11 entry C          line   148 file /Users/moseschung/miniconda3/envs/psi4/share/psi4/basis/aug-cc-pvtz-ri.gbs 
    atoms 3, 12      entry O          line   264 file /Users/moseschung/miniconda3/envs/psi4/share/psi4/basis/aug-cc-pvtz-ri.gbs 
    atoms 4-9, 13-18 entry H          line    30 file /Users/moseschung/miniconda3/envs/psi4/share/psi4/basis/aug-cc-pvtz-ri.gbs 

	 --------------------------------------------------------
	                          DF-MP2                         
	      2nd-Order Density-Fitted Moller-Plesset Theory     
	              RMP2 Wavefunction,  10 Threads             
	                                                         
	        Rob Parrish, Justin Turney, Andy Simmonett,      
	           Ed Hohenstein, and C. David Sherrill          
	 --------------------------------------------------------

   => Auxiliary Basis Set <=

  Basis Set: (AUG-CC-PVTZ AUX)
    Blend: AUG-CC-PVTZ-RI
    Number of shells: 336
    Number of basis functions: 1188
    Number of Cartesian functions: 1476
    Spherical Harmonics?: true
    Max angular momentum: 4

	 --------------------------------------------------------
	                 NBF =   552, NAUX =  1188
	 --------------------------------------------------------
	   CLASS    FOCC     OCC    AOCC    AVIR     VIR    FVIR
	   PAIRS       0      13      13     539     539       0
	 --------------------------------------------------------

	-----------------------------------------------------------
	 ==================> DF-MP2 Energies <==================== 
	-----------------------------------------------------------
	 Reference Energy          =    -154.1446489645524309 [Eh]
	 Singles Energy            =      -0.0000000000000000 [Eh]
	 Same-Spin Energy          =      -0.1483141279348721 [Eh]
	 Opposite-Spin Energy      =      -0.5187076218428259 [Eh]
	 Correlation Energy        =      -0.6670217497776980 [Eh]
	 Total Energy              =    -154.8116707143301198 [Eh]
	-----------------------------------------------------------
	 ================> DF-SCS-MP2 Energies <================== 
	-----------------------------------------------------------
	 SCS Same-Spin Scale       =       0.3333333333333333 [-]
	 SCS Opposite-Spin Scale   =       1.2000000000000000 [-]
	 SCS Same-Spin Energy      =      -0.0494380426449574 [Eh]
	 SCS Opposite-Spin Energy  =      -0.6224491462113911 [Eh]
	 SCS Correlation Energy    =      -0.6718871888563485 [Eh]
	 SCS Total Energy          =    -154.8165361534087765 [Eh]
	-----------------------------------------------------------


*** tstop() called on Moses-MBP.lan at Thu Feb 27 17:13:50 2025
Module time:
	user time   =      19.84 seconds =       0.33 minutes
	system time =       1.73 seconds =       0.03 minutes
	total time  =          3 seconds =       0.05 minutes
Total time:
	user time   =      89.85 seconds =       1.50 minutes
	system time =       8.73 seconds =       0.15 minutes
	total time  =         13 seconds =       0.22 minutes

    Psi4 stopped on: Thursday, 27 February 2025 05:13PM
    Psi4 wall time for execution: 0:00:13.19


    -----------------------------------------------------------------------
          Psi4: An Open-Source Ab Initio Electronic Structure Package
                               Psi4 1.9.1 release

                         Git: Rev {} zzzzzzz 


    D. G. A. Smith, L. A. Burns, A. C. Simmonett, R. M. Parrish,
    M. C. Schieber, R. Galvelis, P. Kraus, H. Kruse, R. Di Remigio,
    A. Alenaizan, A. M. James, S. Lehtola, J. P. Misiewicz, M. Scheurer,
    R. A. Shaw, J. B. Schriber, Y. Xie, Z. L. Glick, D. A. Sirianni,
    J. S. O'Brien, J. M. Waldrop, A. Kumar, E. G. Hohenstein,
    B. P. Pritchard, B. R. Brooks, H. F. Schaefer III, A. Yu. Sokolov,
    K. Patkowski, A. E. DePrince III, U. Bozkaya, R. A. King,
    F. A. Evangelista, J. M. Turney, T. D. Crawford, C. D. Sherrill,
    J. Chem. Phys. 152(18) 184108 (2020). https://doi.org/10.1063/5.0006002

                            Additional Code Authors
    E. T. Seidl, C. L. Janssen, E. F. Valeev, M. L. Leininger,
    J. F. Gonthier, R. M. Richard, H. R. McAlexander, M. Saitow, X. Wang,
    P. Verma, M. H. Lechner, A. Jiang, S. Behnle, A. G. Heide,
    M. F. Herbst, and D. L. Poole

             Previous Authors, Complete List of Code Contributors,
                       and Citations for Specific Modules
    https://github.com/psi4/psi4/blob/master/codemeta.json
    https://github.com/psi4/psi4/graphs/contributors
    http://psicode.org/psi4manual/master/introduction.html#citing-psifour

    -----------------------------------------------------------------------


    Psi4 started on: Thursday, 27 February 2025 05:13PM

    Process ID: 30348
    Host:       Moses-MBP.lan
    PSIDATADIR: /Users/moseschung/miniconda3/envs/psi4/share/psi4
    Memory:     9.3 GiB
    Threads:    10
    
  ==> Input QCSchema <==

--------------------------------------------------------------------------
{'driver': 'energy',
 'extras': {'psiapi': True, 'wfn_qcvars_only': True},
 'id': None,
 'keywords': {'SCF_TYPE': 'DF', 'function_kwargs': {}},
 'model': {'basis': 'aug-cc-pvtz', 'method': 'mp2'},
 'molecule': {'atom_labels': ['', '', '', '', '', '', '', '', '', '', '', '', '', '', '', '', '', ''],
              'atomic_numbers': [6, 6, 8, 1, 1, 1, 1, 1, 1, 6, 6, 8, 1, 1, 1, 1, 1, 1],
              'extras': {},
              'fix_com': True,
              'fix_orientation': True,
              'fix_symmetry': 'c1',
              'fragment_charges': [0.0, 0.0],
              'fragment_multiplicities': [1, 1],
              'fragments': [[0, 1, 2, 3, 4, 5, 6, 7, 8], [9, 10, 11, 12, 13, 14, 15, 16, 17]],
              'geometry': [-5.763162015497004, 0.819867128160506, -0.24600076755984912, -3.087304152670343,
                           -0.0030537974187398505, -0.7478496655193082, -1.9350474271246834, -1.0666710293236747,
                           1.4289353070261914, -2.9588519090184726, -2.4485653839088446, 2.013454053796054,
                           -6.589289806311152, 1.6991850402279154, -1.9189658577970372, -5.829856119642788,
                           2.1766186766464592, 1.3060728732534252, -6.952302415559349, -0.7937152083102952,
                           0.2604212676232178, -1.900633624653971, 1.6057853264771622, -1.2663376020134234,
                           -3.0028258359578763, -1.3377427933899728, -2.333755073156653, 3.647949989297297,
                           2.385023342940325, 0.2222525793412206, 4.6449487061014665, -0.2862424854014736,
                           0.0955086481067641, 2.8708662606171553, -1.9897965724314477, -0.8959493916975636,
                           1.3538810545013829, -1.8866269746120774, 0.12593323872663514, 5.075392412684377,
                           3.6878175413660808, 0.9477807998666209, 2.003342129298729, 2.4852204015643498,
                           1.471427688683236, 3.0726493265674177, 3.0294955407664625, -1.6534045351125741,
                           5.287587869585911, -0.8854689706057745, 1.9814477624091749, 6.299747859094629,
                           -0.373827511864193, -1.1414210359422847],
              'mass_numbers': [12, 12, 16, 1, 1, 1, 1, 1, 1, 12, 12, 16, 1, 1, 1, 1, 1, 1],
              'masses': [12.0, 12.0, 15.99491461957, 1.00782503223, 1.00782503223, 1.00782503223, 1.00782503223,
                         1.00782503223, 1.00782503223, 12.0, 12.0, 15.99491461957, 1.00782503223, 1.00782503223,
                         1.00782503223, 1.00782503223, 1.00782503223, 1.00782503223],
              'molecular_charge': 0.0,
              'molecular_multiplicity': 1,
              'name': 'dimer',
              'provenance': {'creator': 'QCElemental',
                             'routine': 'qcelemental.molparse.from_string',
                             'version': '0.29.0'},
              'real': [True, True, True, True, True, True, True, True, True, False, False, False, False, False, False,
                       False, False, False],
              'schema_name': 'qcschema_molecule',
              'schema_version': 2,
              'symbols': ['C', 'C', 'O', 'H', 'H', 'H', 'H', 'H', 'H', 'C', 'C', 'O', 'H', 'H', 'H', 'H', 'H', 'H'],
              'validated': True},
 'protocols': {'stdout': True},
 'provenance': {'creator': 'QCElemental', 'routine': 'qcelemental.models.results', 'version': '0.29.0'},
 'schema_name': 'qcschema_input',
 'schema_version': 1}
--------------------------------------------------------------------------

Scratch directory: /tmp/
   => Libint2 <=

    Primary   basis highest AM E, G, H:  6, 6, 3
    Auxiliary basis highest AM E, G, H:  7, 7, 4
    Onebody   basis highest AM E, G, H:  -, -, -
    Solid Harmonics ordering:            Gaussian

*** tstart() called on Moses-MBP.lan
*** at Thu Feb 27 17:13:50 2025

   => Loading Basis Set <=

    Name: AUG-CC-PVTZ
    Role: ORBITAL
    Keyword: BASIS
    atoms 1-2, 10-11 entry C          line   239 file /Users/moseschung/miniconda3/envs/psi4/share/psi4/basis/aug-cc-pvtz.gbs 
    atoms 3, 12      entry O          line   331 file /Users/moseschung/miniconda3/envs/psi4/share/psi4/basis/aug-cc-pvtz.gbs 
    atoms 4-9, 13-18 entry H          line    40 file /Users/moseschung/miniconda3/envs/psi4/share/psi4/basis/aug-cc-pvtz.gbs 


         ---------------------------------------------------------
                                   SCF
               by Justin Turney, Rob Parrish, Andy Simmonett
                          and Daniel G. A. Smith
                              RHF Reference
                       10 Threads,   9536 MiB Core
         ---------------------------------------------------------

  ==> Geometry <==

    Molecular point group: c1
    Full point group: C1

    Geometry (in Bohr), charge = 0, multiplicity = 1:

       Center              X                  Y                   Z               Mass       
    ------------   -----------------  -----------------  -----------------  -----------------
         C           -5.763162015497     0.819867128161    -0.246000767560    12.000000000000
         C           -3.087304152670    -0.003053797419    -0.747849665519    12.000000000000
         O           -1.935047427125    -1.066671029324     1.428935307026    15.994914619570
         H           -2.958851909018    -2.448565383909     2.013454053796     1.007825032230
         H           -6.589289806311     1.699185040228    -1.918965857797     1.007825032230
         H           -5.829856119643     2.176618676646     1.306072873253     1.007825032230
         H           -6.952302415559    -0.793715208310     0.260421267623     1.007825032230
         H           -1.900633624654     1.605785326477    -1.266337602013     1.007825032230
         H           -3.002825835958    -1.337742793390    -2.333755073157     1.007825032230
      Gh(C)           3.647949989297     2.385023342940     0.222252579341    12.000000000000
      Gh(C)           4.644948706101    -0.286242485401     0.095508648107    12.000000000000
      Gh(O)           2.870866260617    -1.989796572431    -0.895949391698    15.994914619570
      Gh(H)           1.353881054501    -1.886626974612     0.125933238727     1.007825032230
      Gh(H)           5.075392412684     3.687817541366     0.947780799867     1.007825032230
      Gh(H)           2.003342129299     2.485220401564     1.471427688683     1.007825032230
      Gh(H)           3.072649326567     3.029495540766    -1.653404535113     1.007825032230
      Gh(H)           5.287587869586    -0.885468970606     1.981447762409     1.007825032230
      Gh(H)           6.299747859095    -0.373827511864    -1.141421035942     1.007825032230

  Running in c1 symmetry.

  Rotational constants: A =      0.20582  B =      0.04116  C =      0.03780 [cm^-1]
  Rotational constants: A =   6170.38003  B =   1233.94416  C =   1133.19568 [MHz]
  Nuclear repulsion =   82.049319686446424

  Charge       = 0
  Multiplicity = 1
  Electrons    = 26
  Nalpha       = 13
  Nbeta        = 13

  ==> Algorithm <==

  SCF Algorithm Type is DF.
  DIIS enabled.
  MOM disabled.
  Fractional occupation disabled.
  Guess Type is SAD.
  Energy threshold   = 1.00e-08
  Density threshold  = 1.00e-08
  Integral threshold = 1.00e-12

  ==> Primary Basis <==

  Basis Set: AUG-CC-PVTZ
    Blend: AUG-CC-PVTZ
    Number of shells: 192
    Number of basis functions: 552
    Number of Cartesian functions: 630
    Spherical Harmonics?: true
    Max angular momentum: 3

   => Loading Basis Set <=

    Name: (AUG-CC-PVTZ AUX)
    Role: JKFIT
    Keyword: DF_BASIS_SCF
    atoms 1-2, 10-11 entry C          line   162 file /Users/moseschung/miniconda3/envs/psi4/share/psi4/basis/aug-cc-pvtz-jkfit.gbs 
    atoms 3, 12      entry O          line   286 file /Users/moseschung/miniconda3/envs/psi4/share/psi4/basis/aug-cc-pvtz-jkfit.gbs 
    atoms 4-9, 13-18 entry H          line    70 file /Users/moseschung/miniconda3/envs/psi4/share/psi4/basis/aug-cc-pvtz-jkfit.gbs 

  ==> Integral Setup <==

  DFHelper Memory: AOs need 2.591 GiB; user supplied 6.985 GiB. 
  Using in-core AOs.

  ==> MemDFJK: Density-Fitted J/K Matrices <==

    J tasked:                   Yes
    K tasked:                   Yes
    wK tasked:                   No
    OpenMP threads:              10
    Memory [MiB]:              7152
    Algorithm:                 Core
    Schwarz Cutoff:           1E-12
    Mask sparsity (%):       6.4915
    Fitting Condition:        1E-10

   => Auxiliary Basis Set <=

  Basis Set: (AUG-CC-PVTZ AUX)
    Blend: AUG-CC-PVTZ-JKFIT
    Number of shells: 348
    Number of basis functions: 1176
    Number of Cartesian functions: 1446
    Spherical Harmonics?: true
    Max angular momentum: 4

  Minimum eigenvalue in the overlap matrix is 1.0743632365E-05.
  Reciprocal condition number of the overlap matrix is 5.8933816196E-07.
    Using symmetric orthogonalization.

  ==> Pre-Iterations <==

  SCF Guess: Superposition of Atomic Densities via on-the-fly atomic UHF (no occupation information).

   -------------------------
    Irrep   Nso     Nmo    
   -------------------------
     A        552     552 
   -------------------------
    Total     552     552
   -------------------------

  ==> Iterations <==

                           Total Energy        Delta E     RMS |[F,P]|

   @DF-RHF iter SAD:  -153.44331358137555   -1.53443e+02   0.00000e+00 
   @DF-RHF iter   1:  -154.00349905416445   -5.60185e-01   9.37699e-04 ADIIS/DIIS
   @DF-RHF iter   2:  -154.11518104911138   -1.11682e-01   4.97170e-04 ADIIS/DIIS
   @DF-RHF iter   3:  -154.14326806068314   -2.80870e-02   8.42992e-05 DIIS
   @DF-RHF iter   4:  -154.14485075403522   -1.58269e-03   3.23651e-05 DIIS
   @DF-RHF iter   5:  -154.14504009764144   -1.89344e-04   6.22560e-06 DIIS
   @DF-RHF iter   6:  -154.14505040924664   -1.03116e-05   1.42785e-06 DIIS
   @DF-RHF iter   7:  -154.14505114686193   -7.37615e-07   4.07294e-07 DIIS
   @DF-RHF iter   8:  -154.14505120248378   -5.56219e-08   1.29275e-07 DIIS
   @DF-RHF iter   9:  -154.14505120877814   -6.29436e-09   3.31857e-08 DIIS
   @DF-RHF iter  10:  -154.14505120922024   -4.42100e-10   6.35901e-09 DIIS
  Energy and wave function converged.


  ==> Post-Iterations <==

    Orbital Energies [Eh]
    ---------------------

    Doubly Occupied:                                                      

       1A    -20.554205     2A    -11.273855     3A    -11.218750  
       4A     -1.357712     5A     -1.015460     6A     -0.848751  
       7A     -0.684747     8A     -0.624438     9A     -0.611882  
      10A     -0.543830    11A     -0.525603    12A     -0.481870  
      13A     -0.443715  

    Virtual:                                                              

      14A      0.025388    15A      0.032203    16A      0.037012  
      17A      0.038173    18A      0.050493    19A      0.051561  
      20A      0.053366    21A      0.063378    22A      0.071999  
      23A      0.075515    24A      0.080526    25A      0.085944  
      26A      0.101298    27A      0.105934    28A      0.114718  
      29A      0.120976    30A      0.124013    31A      0.129157  
      32A      0.132950    33A      0.135897    34A      0.145042  
      35A      0.145299    36A      0.149370    37A      0.160037  
      38A      0.161787    39A      0.174768    40A      0.176881  
      41A      0.187054    42A      0.200062    43A      0.206003  
      44A      0.212568    45A      0.216750    46A      0.231584  
      47A      0.240092    48A      0.246425    49A      0.251816  
      50A      0.262647    51A      0.264618    52A      0.273706  
      53A      0.276245    54A      0.288647    55A      0.298731  
      56A      0.301586    57A      0.305995    58A      0.312427  
      59A      0.319875    60A      0.321654    61A      0.330039  
      62A      0.333177    63A      0.343063    64A      0.348236  
      65A      0.353153    66A      0.357160    67A      0.361174  
      68A      0.368572    69A      0.371381    70A      0.378465  
      71A      0.389120    72A      0.390857    73A      0.396915  
      74A      0.399076    75A      0.403926    76A      0.410267  
      77A      0.412224    78A      0.419228    79A      0.421220  
      80A      0.429894    81A      0.438082    82A      0.444150  
      83A      0.447627    84A      0.451472    85A      0.458456  
      86A      0.463019    87A      0.468946    88A      0.472331  
      89A      0.478538    90A      0.482957    91A      0.493565  
      92A      0.494243    93A      0.501803    94A      0.505988  
      95A      0.509415    96A      0.522987    97A      0.525984  
      98A      0.530860    99A      0.544022   100A      0.547650  
     101A      0.550995   102A      0.558980   103A      0.563274  
     104A      0.572693   105A      0.581183   106A      0.583947  
     107A      0.588110   108A      0.601620   109A      0.605950  
     110A      0.614718   111A      0.627355   112A      0.640643  
     113A      0.643427   114A      0.652029   115A      0.662996  
     116A      0.669257   117A      0.674882   118A      0.675813  
     119A      0.685342   120A      0.692464   121A      0.714100  
     122A      0.719969   123A      0.727152   124A      0.740734  
     125A      0.763876   126A      0.772075   127A      0.776886  
     128A      0.800528   129A      0.811087   130A      0.814589  
     131A      0.822560   132A      0.829505   133A      0.837758  
     134A      0.839841   135A      0.852794   136A      0.858502  
     137A      0.874881   138A      0.883829   139A      0.897301  
     140A      0.901820   141A      0.905977   142A      0.916790  
     143A      0.919363   144A      0.936669   145A      0.946604  
     146A      0.952339   147A      0.957146   148A      0.963087  
     149A      0.966682   150A      0.971217   151A      0.981936  
     152A      0.989822   153A      1.000033   154A      1.002824  
     155A      1.012982   156A      1.019704   157A      1.029333  
     158A      1.041078   159A      1.042460   160A      1.054603  
     161A      1.056939   162A      1.067646   163A      1.073546  
     164A      1.085002   165A      1.093832   166A      1.098240  
     167A      1.106901   168A      1.108919   169A      1.116196  
     170A      1.122497   171A      1.127443   172A      1.139099  
     173A      1.142076   174A      1.145496   175A      1.149094  
     176A      1.153726   177A      1.161831   178A      1.171012  
     179A      1.182994   180A      1.190660   181A      1.191642  
     182A      1.198955   183A      1.203272   184A      1.208495  
     185A      1.225493   186A      1.227844   187A      1.234665  
     188A      1.242944   189A      1.248675   190A      1.255289  
     191A      1.257288   192A      1.271731   193A      1.276082  
     194A      1.288320   195A      1.299051   196A      1.303390  
     197A      1.310546   198A      1.321152   199A      1.331143  
     200A      1.338656   201A      1.348150   202A      1.354619  
     203A      1.357364   204A      1.366547   205A      1.379833  
     206A      1.387855   207A      1.401372   208A      1.413299  
     209A      1.433829   210A      1.438026   211A      1.451510  
     212A      1.453573   213A      1.462508   214A      1.465353  
     215A      1.479968   216A      1.495957   217A      1.499268  
     218A      1.513216   219A      1.524286   220A      1.529652  
     221A      1.545075   222A      1.554168   223A      1.564644  
     224A      1.566344   225A      1.584573   226A      1.586023  
     227A      1.604018   228A      1.623518   229A      1.629035  
     230A      1.636658   231A      1.655945   232A      1.669069  
     233A      1.674881   234A      1.678480   235A      1.684419  
     236A      1.696178   237A      1.700928   238A      1.721612  
     239A      1.725636   240A      1.729158   241A      1.739024  
     242A      1.749341   243A      1.755960   244A      1.762404  
     245A      1.770777   246A      1.790623   247A      1.797556  
     248A      1.825572   249A      1.842000   250A      1.849958  
     251A      1.864349   252A      1.868016   253A      1.873999  
     254A      1.891497   255A      1.897040   256A      1.910186  
     257A      1.924052   258A      1.932342   259A      1.939206  
     260A      1.951604   261A      1.966741   262A      1.979896  
     263A      1.990334   264A      2.008736   265A      2.009997  
     266A      2.018933   267A      2.025908   268A      2.044101  
     269A      2.062933   270A      2.065508   271A      2.074909  
     272A      2.090009   273A      2.094505   274A      2.112132  
     275A      2.124480   276A      2.132225   277A      2.149787  
     278A      2.170242   279A      2.188179   280A      2.195109  
     281A      2.197605   282A      2.211917   283A      2.223706  
     284A      2.239546   285A      2.247191   286A      2.249940  
     287A      2.268170   288A      2.278110   289A      2.290768  
     290A      2.307666   291A      2.324283   292A      2.333255  
     293A      2.361797   294A      2.366914   295A      2.391759  
     296A      2.425068   297A      2.438826   298A      2.443861  
     299A      2.478000   300A      2.483213   301A      2.511357  
     302A      2.531443   303A      2.561962   304A      2.583852  
     305A      2.608300   306A      2.622949   307A      2.639208  
     308A      2.657380   309A      2.702065   310A      2.707898  
     311A      2.727911   312A      2.730378   313A      2.745005  
     314A      2.782985   315A      2.787888   316A      2.799907  
     317A      2.832102   318A      2.841578   319A      2.867524  
     320A      2.891942   321A      2.933357   322A      2.945660  
     323A      2.960701   324A      2.985263   325A      3.014373  
     326A      3.022186   327A      3.036172   328A      3.065892  
     329A      3.081468   330A      3.109601   331A      3.129833  
     332A      3.154682   333A      3.199617   334A      3.241603  
     335A      3.262380   336A      3.263587   337A      3.308905  
     338A      3.385599   339A      3.422076   340A      3.445445  
     341A      3.459762   342A      3.488872   343A      3.521796  
     344A      3.531898   345A      3.563508   346A      3.585114  
     347A      3.603891   348A      3.628064   349A      3.637683  
     350A      3.657758   351A      3.681318   352A      3.702194  
     353A      3.714867   354A      3.731464   355A      3.756170  
     356A      3.781360   357A      3.795984   358A      3.796343  
     359A      3.822084   360A      3.857348   361A      3.872556  
     362A      3.917596   363A      3.954644   364A      3.958573  
     365A      3.978959   366A      3.983934   367A      4.000463  
     368A      4.018255   369A      4.045525   370A      4.074123  
     371A      4.111968   372A      4.126756   373A      4.135825  
     374A      4.145968   375A      4.158082   376A      4.164156  
     377A      4.180539   378A      4.183564   379A      4.201837  
     380A      4.216461   381A      4.236848   382A      4.247045  
     383A      4.256437   384A      4.259798   385A      4.293675  
     386A      4.321201   387A      4.337761   388A      4.348013  
     389A      4.372195   390A      4.386042   391A      4.414895  
     392A      4.430389   393A      4.434316   394A      4.481938  
     395A      4.489034   396A      4.500261   397A      4.504828  
     398A      4.518753   399A      4.544695   400A      4.581695  
     401A      4.599860   402A      4.606359   403A      4.623008  
     404A      4.628486   405A      4.645432   406A      4.650036  
     407A      4.678450   408A      4.696511   409A      4.718219  
     410A      4.724833   411A      4.742479   412A      4.761868  
     413A      4.769659   414A      4.787192   415A      4.813462  
     416A      4.826564   417A      4.830945   418A      4.854164  
     419A      4.865373   420A      4.871819   421A      4.895405  
     422A      4.909772   423A      4.932700   424A      4.938466  
     425A      4.968394   426A      4.970354   427A      4.982908  
     428A      5.001943   429A      5.019147   430A      5.034954  
     431A      5.037530   432A      5.071212   433A      5.083861  
     434A      5.094392   435A      5.140608   436A      5.161238  
     437A      5.175114   438A      5.189147   439A      5.205111  
     440A      5.207142   441A      5.248961   442A      5.249763  
     443A      5.283429   444A      5.295204   445A      5.299350  
     446A      5.314303   447A      5.349879   448A      5.366574  
     449A      5.388162   450A      5.403216   451A      5.429385  
     452A      5.440049   453A      5.445089   454A      5.487450  
     455A      5.502062   456A      5.513794   457A      5.532296  
     458A      5.544649   459A      5.564983   460A      5.580170  
     461A      5.587051   462A      5.612320   463A      5.619467  
     464A      5.627228   465A      5.644183   466A      5.663870  
     467A      5.675848   468A      5.696776   469A      5.736081  
     470A      5.752656   471A      5.761572   472A      5.776430  
     473A      5.818689   474A      5.821330   475A      5.846593  
     476A      5.885770   477A      5.914942   478A      5.964798  
     479A      6.000577   480A      6.016204   481A      6.071443  
     482A      6.096388   483A      6.116810   484A      6.154051  
     485A      6.172729   486A      6.186325   487A      6.236805  
     488A      6.244785   489A      6.285163   490A      6.302356  
     491A      6.346164   492A      6.377274   493A      6.419049  
     494A      6.492247   495A      6.544768   496A      6.738700  
     497A      6.750481   498A      6.772112   499A      6.807857  
     500A      6.860057   501A      6.880409   502A      6.996470  
     503A      7.028599   504A      7.049005   505A      7.090122  
     506A      7.139313   507A      7.145734   508A      7.209662  
     509A      7.319757   510A      7.377342   511A      7.415343  
     512A      7.475149   513A      7.539252   514A      7.558610  
     515A      7.723944   516A      7.781650   517A      7.814779  
     518A      7.861095   519A      7.876098   520A      7.898978  
     521A      7.923615   522A      7.966465   523A      8.009063  
     524A      8.068592   525A      8.179136   526A      8.205504  
     527A      8.278914   528A      8.340040   529A      8.355773  
     530A      8.402722   531A      8.458988   532A      8.651009  
     533A      8.696168   534A      8.944082   535A      9.068282  
     536A     10.008413   537A     10.114115   538A     10.310062  
     539A     10.449131   540A     10.680462   541A     10.765840  
     542A     11.123760   543A     12.103653   544A     12.463065  
     545A     13.335109   546A     14.406839   547A     16.572625  
     548A     17.878118   549A     18.776487   550A     52.823189  
     551A     54.308516   552A     67.730155  

    Final Occupation by Irrep:
              A 
    DOCC [    13 ]
    NA   [    13 ]
    NB   [    13 ]

  @DF-RHF Final Energy:  -154.14505120922024

   => Energetics <=

    Nuclear Repulsion Energy =             82.0493196864464238
    One-Electron Energy =                -372.0191018444193105
    Two-Electron Energy =                 135.8247309487526309
    Total Energy =                       -154.1450512092202416

Computation Completed


Properties will be evaluated at   0.000000,   0.000000,   0.000000 [a0]

Properties computed using the SCF density matrix


 Multipole Moments:

 ------------------------------------------------------------------------------------
     Multipole            Electronic (a.u.)      Nuclear  (a.u.)        Total (a.u.)
 ------------------------------------------------------------------------------------

 L = 1.  Multiply by 2.5417464519 to convert [e a0] to [Debye]
 Dipole X            :         95.1874862          -95.8169361           -0.6294500
 Dipole Y            :          2.5685690           -2.7309226           -0.1623536
 Dipole Z            :         -3.8418542            3.5292695           -0.3125847
 Magnitude           :                                                    0.7213010

 ------------------------------------------------------------------------------------

*** tstop() called on Moses-MBP.lan at Thu Feb 27 17:14:00 2025
Module time:
	user time   =      69.94 seconds =       1.17 minutes
	system time =       5.73 seconds =       0.10 minutes
	total time  =         10 seconds =       0.17 minutes
Total time:
	user time   =     160.08 seconds =       2.67 minutes
	system time =      14.53 seconds =       0.24 minutes
	total time  =         23 seconds =       0.38 minutes

*** tstart() called on Moses-MBP.lan
*** at Thu Feb 27 17:14:00 2025


  //>>>>>>>>>>>>>>>>>>>>>>>>>>>>>>>>>>>//
  //               DFMP2               //
  //<<<<<<<<<<<<<<<<<<<<<<<<<<<<<<<<<<<//

   => Loading Basis Set <=

    Name: (AUG-CC-PVTZ AUX)
    Role: RIFIT
    Keyword: DF_BASIS_MP2
    atoms 1-2, 10-11 entry C          line   148 file /Users/moseschung/miniconda3/envs/psi4/share/psi4/basis/aug-cc-pvtz-ri.gbs 
    atoms 3, 12      entry O          line   264 file /Users/moseschung/miniconda3/envs/psi4/share/psi4/basis/aug-cc-pvtz-ri.gbs 
    atoms 4-9, 13-18 entry H          line    30 file /Users/moseschung/miniconda3/envs/psi4/share/psi4/basis/aug-cc-pvtz-ri.gbs 

	 --------------------------------------------------------
	                          DF-MP2                         
	      2nd-Order Density-Fitted Moller-Plesset Theory     
	              RMP2 Wavefunction,  10 Threads             
	                                                         
	        Rob Parrish, Justin Turney, Andy Simmonett,      
	           Ed Hohenstein, and C. David Sherrill          
	 --------------------------------------------------------

   => Auxiliary Basis Set <=

  Basis Set: (AUG-CC-PVTZ AUX)
    Blend: AUG-CC-PVTZ-RI
    Number of shells: 336
    Number of basis functions: 1188
    Number of Cartesian functions: 1476
    Spherical Harmonics?: true
    Max angular momentum: 4

	 --------------------------------------------------------
	                 NBF =   552, NAUX =  1188
	 --------------------------------------------------------
	   CLASS    FOCC     OCC    AOCC    AVIR     VIR    FVIR
	   PAIRS       0      13      13     539     539       0
	 --------------------------------------------------------

	-----------------------------------------------------------
	 ==================> DF-MP2 Energies <==================== 
	-----------------------------------------------------------
	 Reference Energy          =    -154.1450512092202416 [Eh]
	 Singles Energy            =      -0.0000000000000000 [Eh]
	 Same-Spin Energy          =      -0.1482680999786242 [Eh]
	 Opposite-Spin Energy      =      -0.5188359728680194 [Eh]
	 Correlation Energy        =      -0.6671040728466436 [Eh]
	 Total Energy              =    -154.8121552820668967 [Eh]
	-----------------------------------------------------------
	 ================> DF-SCS-MP2 Energies <================== 
	-----------------------------------------------------------
	 SCS Same-Spin Scale       =       0.3333333333333333 [-]
	 SCS Opposite-Spin Scale   =       1.2000000000000000 [-]
	 SCS Same-Spin Energy      =      -0.0494226999928747 [Eh]
	 SCS Opposite-Spin Energy  =      -0.6226031674416233 [Eh]
	 SCS Correlation Energy    =      -0.6720258674344980 [Eh]
	 SCS Total Energy          =    -154.8170770766547264 [Eh]
	-----------------------------------------------------------


*** tstop() called on Moses-MBP.lan at Thu Feb 27 17:14:03 2025
Module time:
	user time   =      19.98 seconds =       0.33 minutes
	system time =       1.97 seconds =       0.03 minutes
	total time  =          3 seconds =       0.05 minutes
Total time:
	user time   =     180.07 seconds =       3.00 minutes
	system time =      16.50 seconds =       0.28 minutes
	total time  =         26 seconds =       0.43 minutes

    Psi4 stopped on: Thursday, 27 February 2025 05:14PM
    Psi4 wall time for execution: 0:00:12.82


    -----------------------------------------------------------------------
          Psi4: An Open-Source Ab Initio Electronic Structure Package
                               Psi4 1.9.1 release

                         Git: Rev {} zzzzzzz 


    D. G. A. Smith, L. A. Burns, A. C. Simmonett, R. M. Parrish,
    M. C. Schieber, R. Galvelis, P. Kraus, H. Kruse, R. Di Remigio,
    A. Alenaizan, A. M. James, S. Lehtola, J. P. Misiewicz, M. Scheurer,
    R. A. Shaw, J. B. Schriber, Y. Xie, Z. L. Glick, D. A. Sirianni,
    J. S. O'Brien, J. M. Waldrop, A. Kumar, E. G. Hohenstein,
    B. P. Pritchard, B. R. Brooks, H. F. Schaefer III, A. Yu. Sokolov,
    K. Patkowski, A. E. DePrince III, U. Bozkaya, R. A. King,
    F. A. Evangelista, J. M. Turney, T. D. Crawford, C. D. Sherrill,
    J. Chem. Phys. 152(18) 184108 (2020). https://doi.org/10.1063/5.0006002

                            Additional Code Authors
    E. T. Seidl, C. L. Janssen, E. F. Valeev, M. L. Leininger,
    J. F. Gonthier, R. M. Richard, H. R. McAlexander, M. Saitow, X. Wang,
    P. Verma, M. H. Lechner, A. Jiang, S. Behnle, A. G. Heide,
    M. F. Herbst, and D. L. Poole

             Previous Authors, Complete List of Code Contributors,
                       and Citations for Specific Modules
    https://github.com/psi4/psi4/blob/master/codemeta.json
    https://github.com/psi4/psi4/graphs/contributors
    http://psicode.org/psi4manual/master/introduction.html#citing-psifour

    -----------------------------------------------------------------------


    Psi4 started on: Thursday, 27 February 2025 05:13PM

    Process ID: 30348
    Host:       Moses-MBP.lan
    PSIDATADIR: /Users/moseschung/miniconda3/envs/psi4/share/psi4
    Memory:     9.3 GiB
    Threads:    10
    
  ==> Input QCSchema <==

--------------------------------------------------------------------------
{'driver': 'energy',
 'extras': {'psiapi': True, 'wfn_qcvars_only': True},
 'id': None,
 'keywords': {'SCF_TYPE': 'DF', 'function_kwargs': {}},
 'model': {'basis': 'aug-cc-pvtz', 'method': 'mp2'},
 'molecule': {'atom_labels': ['', '', '', '', '', '', '', '', '', '', '', '', '', '', '', '', '', ''],
              'atomic_numbers': [6, 6, 8, 1, 1, 1, 1, 1, 1, 6, 6, 8, 1, 1, 1, 1, 1, 1],
              'extras': {},
              'fix_com': True,
              'fix_orientation': True,
              'fix_symmetry': 'c1',
              'fragment_charges': [0.0, 0.0],
              'fragment_multiplicities': [1, 1],
              'fragments': [[0, 1, 2, 3, 4, 5, 6, 7, 8], [9, 10, 11, 12, 13, 14, 15, 16, 17]],
              'geometry': [-5.763162015497004, 0.819867128160506, -0.24600076755984912, -3.087304152670343,
                           -0.0030537974187398505, -0.7478496655193082, -1.9350474271246834, -1.0666710293236747,
                           1.4289353070261914, -2.9588519090184726, -2.4485653839088446, 2.013454053796054,
                           -6.589289806311152, 1.6991850402279154, -1.9189658577970372, -5.829856119642788,
                           2.1766186766464592, 1.3060728732534252, -6.952302415559349, -0.7937152083102952,
                           0.2604212676232178, -1.900633624653971, 1.6057853264771622, -1.2663376020134234,
                           -3.0028258359578763, -1.3377427933899728, -2.333755073156653, 3.647949989297297,
                           2.385023342940325, 0.2222525793412206, 4.6449487061014665, -0.2862424854014736,
                           0.0955086481067641, 2.8708662606171553, -1.9897965724314477, -0.8959493916975636,
                           1.3538810545013829, -1.8866269746120774, 0.12593323872663514, 5.075392412684377,
                           3.6878175413660808, 0.9477807998666209, 2.003342129298729, 2.4852204015643498,
                           1.471427688683236, 3.0726493265674177, 3.0294955407664625, -1.6534045351125741,
                           5.287587869585911, -0.8854689706057745, 1.9814477624091749, 6.299747859094629,
                           -0.373827511864193, -1.1414210359422847],
              'mass_numbers': [12, 12, 16, 1, 1, 1, 1, 1, 1, 12, 12, 16, 1, 1, 1, 1, 1, 1],
              'masses': [12.0, 12.0, 15.99491461957, 1.00782503223, 1.00782503223, 1.00782503223, 1.00782503223,
                         1.00782503223, 1.00782503223, 12.0, 12.0, 15.99491461957, 1.00782503223, 1.00782503223,
                         1.00782503223, 1.00782503223, 1.00782503223, 1.00782503223],
              'molecular_charge': 0.0,
              'molecular_multiplicity': 1,
              'name': 'dimer',
              'provenance': {'creator': 'QCElemental',
                             'routine': 'qcelemental.molparse.from_string',
                             'version': '0.29.0'},
              'real': [True, True, True, True, True, True, True, True, True, True, True, True, True, True, True, True,
                       True, True],
              'schema_name': 'qcschema_molecule',
              'schema_version': 2,
              'symbols': ['C', 'C', 'O', 'H', 'H', 'H', 'H', 'H', 'H', 'C', 'C', 'O', 'H', 'H', 'H', 'H', 'H', 'H'],
              'validated': True},
 'protocols': {'stdout': True},
 'provenance': {'creator': 'QCElemental', 'routine': 'qcelemental.models.results', 'version': '0.29.0'},
 'schema_name': 'qcschema_input',
 'schema_version': 1}
--------------------------------------------------------------------------

Scratch directory: /tmp/
   => Libint2 <=

    Primary   basis highest AM E, G, H:  6, 6, 3
    Auxiliary basis highest AM E, G, H:  7, 7, 4
    Onebody   basis highest AM E, G, H:  -, -, -
    Solid Harmonics ordering:            Gaussian

*** tstart() called on Moses-MBP.lan
*** at Thu Feb 27 17:14:03 2025

   => Loading Basis Set <=

    Name: AUG-CC-PVTZ
    Role: ORBITAL
    Keyword: BASIS
    atoms 1-2, 10-11 entry C          line   239 file /Users/moseschung/miniconda3/envs/psi4/share/psi4/basis/aug-cc-pvtz.gbs 
    atoms 3, 12      entry O          line   331 file /Users/moseschung/miniconda3/envs/psi4/share/psi4/basis/aug-cc-pvtz.gbs 
    atoms 4-9, 13-18 entry H          line    40 file /Users/moseschung/miniconda3/envs/psi4/share/psi4/basis/aug-cc-pvtz.gbs 


         ---------------------------------------------------------
                                   SCF
               by Justin Turney, Rob Parrish, Andy Simmonett
                          and Daniel G. A. Smith
                              RHF Reference
                       10 Threads,   9536 MiB Core
         ---------------------------------------------------------

  ==> Geometry <==

    Molecular point group: c1
    Full point group: C1

    Geometry (in Bohr), charge = 0, multiplicity = 1:

       Center              X                  Y                   Z               Mass       
    ------------   -----------------  -----------------  -----------------  -----------------
         C           -5.763162015497     0.819867128161    -0.246000767560    12.000000000000
         C           -3.087304152670    -0.003053797419    -0.747849665519    12.000000000000
         O           -1.935047427125    -1.066671029324     1.428935307026    15.994914619570
         H           -2.958851909018    -2.448565383909     2.013454053796     1.007825032230
         H           -6.589289806311     1.699185040228    -1.918965857797     1.007825032230
         H           -5.829856119643     2.176618676646     1.306072873253     1.007825032230
         H           -6.952302415559    -0.793715208310     0.260421267623     1.007825032230
         H           -1.900633624654     1.605785326477    -1.266337602013     1.007825032230
         H           -3.002825835958    -1.337742793390    -2.333755073157     1.007825032230
         C            3.647949989297     2.385023342940     0.222252579341    12.000000000000
         C            4.644948706101    -0.286242485401     0.095508648107    12.000000000000
         O            2.870866260617    -1.989796572431    -0.895949391698    15.994914619570
         H            1.353881054501    -1.886626974612     0.125933238727     1.007825032230
         H            5.075392412684     3.687817541366     0.947780799867     1.007825032230
         H            2.003342129299     2.485220401564     1.471427688683     1.007825032230
         H            3.072649326567     3.029495540766    -1.653404535113     1.007825032230
         H            5.287587869586    -0.885468970606     1.981447762409     1.007825032230
         H            6.299747859095    -0.373827511864    -1.141421035942     1.007825032230

  Running in c1 symmetry.

  Rotational constants: A =      0.20582  B =      0.04116  C =      0.03780 [cm^-1]
  Rotational constants: A =   6170.38003  B =   1233.94416  C =   1133.19568 [MHz]
  Nuclear repulsion =  255.360722172634070

  Charge       = 0
  Multiplicity = 1
  Electrons    = 52
  Nalpha       = 26
  Nbeta        = 26

  ==> Algorithm <==

  SCF Algorithm Type is DF.
  DIIS enabled.
  MOM disabled.
  Fractional occupation disabled.
  Guess Type is SAD.
  Energy threshold   = 1.00e-08
  Density threshold  = 1.00e-08
  Integral threshold = 1.00e-12

  ==> Primary Basis <==

  Basis Set: AUG-CC-PVTZ
    Blend: AUG-CC-PVTZ
    Number of shells: 192
    Number of basis functions: 552
    Number of Cartesian functions: 630
    Spherical Harmonics?: true
    Max angular momentum: 3

   => Loading Basis Set <=

    Name: (AUG-CC-PVTZ AUX)
    Role: JKFIT
    Keyword: DF_BASIS_SCF
    atoms 1-2, 10-11 entry C          line   162 file /Users/moseschung/miniconda3/envs/psi4/share/psi4/basis/aug-cc-pvtz-jkfit.gbs 
    atoms 3, 12      entry O          line   286 file /Users/moseschung/miniconda3/envs/psi4/share/psi4/basis/aug-cc-pvtz-jkfit.gbs 
    atoms 4-9, 13-18 entry H          line    70 file /Users/moseschung/miniconda3/envs/psi4/share/psi4/basis/aug-cc-pvtz-jkfit.gbs 

  ==> Integral Setup <==

  DFHelper Memory: AOs need 2.591 GiB; user supplied 6.985 GiB. 
  Using in-core AOs.

  ==> MemDFJK: Density-Fitted J/K Matrices <==

    J tasked:                   Yes
    K tasked:                   Yes
    wK tasked:                   No
    OpenMP threads:              10
    Memory [MiB]:              7152
    Algorithm:                 Core
    Schwarz Cutoff:           1E-12
    Mask sparsity (%):       6.4915
    Fitting Condition:        1E-10

   => Auxiliary Basis Set <=

  Basis Set: (AUG-CC-PVTZ AUX)
    Blend: AUG-CC-PVTZ-JKFIT
    Number of shells: 348
    Number of basis functions: 1176
    Number of Cartesian functions: 1446
    Spherical Harmonics?: true
    Max angular momentum: 4

  Minimum eigenvalue in the overlap matrix is 1.0743632365E-05.
  Reciprocal condition number of the overlap matrix is 5.8933816196E-07.
    Using symmetric orthogonalization.

  ==> Pre-Iterations <==

  SCF Guess: Superposition of Atomic Densities via on-the-fly atomic UHF (no occupation information).

   -------------------------
    Irrep   Nso     Nmo    
   -------------------------
     A        552     552 
   -------------------------
    Total     552     552
   -------------------------

  ==> Iterations <==

                           Total Energy        Delta E     RMS |[F,P]|

   @DF-RHF iter SAD:  -307.09072916400038   -3.07091e+02   0.00000e+00 
   @DF-RHF iter   1:  -308.02190779387945   -9.31179e-01   1.29073e-03 ADIIS/DIIS
   @DF-RHF iter   2:  -308.24083019237162   -2.18922e-01   6.51697e-04 ADIIS/DIIS
   @DF-RHF iter   3:  -308.29033255161835   -4.95024e-02   1.15665e-04 ADIIS/DIIS
   @DF-RHF iter   4:  -308.29341101657144   -3.07846e-03   4.18124e-05 DIIS
   @DF-RHF iter   5:  -308.29372483153162   -3.13815e-04   8.84458e-06 DIIS
   @DF-RHF iter   6:  -308.29374550883961   -2.06773e-05   2.02215e-06 DIIS
   @DF-RHF iter   7:  -308.29374700564733   -1.49681e-06   5.85392e-07 DIIS
   @DF-RHF iter   8:  -308.29374711630834   -1.10661e-07   1.85674e-07 DIIS
   @DF-RHF iter   9:  -308.29374712903063   -1.27223e-08   4.43398e-08 DIIS
   @DF-RHF iter  10:  -308.29374712981712   -7.86486e-10   7.98209e-09 DIIS
  Energy and wave function converged.


  ==> Post-Iterations <==

    Orbital Energies [Eh]
    ---------------------

    Doubly Occupied:                                                      

       1A    -20.576676     2A    -20.527092     3A    -11.284002  
       4A    -11.256204     5A    -11.226982     6A    -11.203860  
       7A     -1.382517     8A     -1.337606     9A     -1.026054  
      10A     -0.997360    11A     -0.861980    12A     -0.830760  
      13A     -0.703776    14A     -0.674337    15A     -0.638353  
      16A     -0.627182    17A     -0.607579    18A     -0.591647  
      19A     -0.556965    20A     -0.538189    21A     -0.526970  
      22A     -0.510013    23A     -0.496851    24A     -0.467713  
      25A     -0.452863    26A     -0.419959  

    Virtual:                                                              

      27A      0.025776    28A      0.035587    29A      0.037235  
      30A      0.040593    31A      0.051280    32A      0.051784  
      33A      0.054438    34A      0.063662    35A      0.072261  
      36A      0.078851    37A      0.083666    38A      0.083798  
      39A      0.109014    40A      0.116062    41A      0.121973  
      42A      0.125154    43A      0.131892    44A      0.134810  
      45A      0.137035    46A      0.142414    47A      0.149106  
      48A      0.154096    49A      0.156908    50A      0.162052  
      51A      0.162316    52A      0.183519    53A      0.188345  
      54A      0.192399    55A      0.196529    56A      0.209223  
      57A      0.218058    58A      0.227732    59A      0.231618  
      60A      0.238701    61A      0.243713    62A      0.260832  
      63A      0.264718    64A      0.273710    65A      0.280400  
      66A      0.284937    67A      0.293070    68A      0.298528  
      69A      0.307402    70A      0.311886    71A      0.320549  
      72A      0.328517    73A      0.331237    74A      0.336555  
      75A      0.344499    76A      0.345798    77A      0.351595  
      78A      0.355636    79A      0.363685    80A      0.367045  
      81A      0.370391    82A      0.373220    83A      0.379393  
      84A      0.391329    85A      0.392167    86A      0.396812  
      87A      0.402713    88A      0.405277    89A      0.406568  
      90A      0.408873    91A      0.410039    92A      0.424392  
      93A      0.430508    94A      0.435732    95A      0.443390  
      96A      0.445515    97A      0.452934    98A      0.455393  
      99A      0.457179   100A      0.462707   101A      0.467640  
     102A      0.473313   103A      0.483937   104A      0.490843  
     105A      0.493305   106A      0.494060   107A      0.495928  
     108A      0.501145   109A      0.504954   110A      0.508818  
     111A      0.517957   112A      0.531482   113A      0.539099  
     114A      0.545572   115A      0.546892   116A      0.551942  
     117A      0.558411   118A      0.562200   119A      0.571942  
     120A      0.586473   121A      0.588321   122A      0.594173  
     123A      0.607876   124A      0.612307   125A      0.622759  
     126A      0.628782   127A      0.638331   128A      0.642573  
     129A      0.654289   130A      0.657364   131A      0.674930  
     132A      0.685536   133A      0.695556   134A      0.703641  
     135A      0.733045   136A      0.750735   137A      0.771252  
     138A      0.782473   139A      0.786499   140A      0.794448  
     141A      0.805351   142A      0.810416   143A      0.820428  
     144A      0.823423   145A      0.827776   146A      0.831359  
     147A      0.835344   148A      0.842136   149A      0.853187  
     150A      0.856794   151A      0.864541   152A      0.874676  
     153A      0.883772   154A      0.894631   155A      0.903586  
     156A      0.905149   157A      0.910600   158A      0.912608  
     159A      0.919578   160A      0.923376   161A      0.928375  
     162A      0.935390   163A      0.942983   164A      0.946615  
     165A      0.954574   166A      0.960473   167A      0.969783  
     168A      0.979776   169A      0.983671   170A      0.991146  
     171A      0.999896   172A      1.010671   173A      1.013953  
     174A      1.021816   175A      1.024041   176A      1.038601  
     177A      1.042474   178A      1.046391   179A      1.055927  
     180A      1.063539   181A      1.080056   182A      1.084693  
     183A      1.091424   184A      1.098245   185A      1.103763  
     186A      1.116394   187A      1.126918   188A      1.135657  
     189A      1.139707   190A      1.143893   191A      1.146147  
     192A      1.158744   193A      1.164108   194A      1.172717  
     195A      1.177228   196A      1.181590   197A      1.184408  
     198A      1.195351   199A      1.202813   200A      1.210705  
     201A      1.216252   202A      1.222705   203A      1.233308  
     204A      1.247154   205A      1.253504   206A      1.257871  
     207A      1.264487   208A      1.277599   209A      1.281009  
     210A      1.302259   211A      1.303744   212A      1.312846  
     213A      1.318822   214A      1.324145   215A      1.335111  
     216A      1.345189   217A      1.348901   218A      1.359554  
     219A      1.380777   220A      1.384505   221A      1.392190  
     222A      1.395014   223A      1.415697   224A      1.427563  
     225A      1.436894   226A      1.449218   227A      1.459171  
     228A      1.466324   229A      1.477099   230A      1.484604  
     231A      1.489271   232A      1.508112   233A      1.513215  
     234A      1.543693   235A      1.548000   236A      1.555916  
     237A      1.562358   238A      1.581399   239A      1.600177  
     240A      1.601511   241A      1.604069   242A      1.618684  
     243A      1.624578   244A      1.634922   245A      1.647959  
     246A      1.662043   247A      1.662880   248A      1.674244  
     249A      1.681242   250A      1.691117   251A      1.697293  
     252A      1.704546   253A      1.709324   254A      1.718484  
     255A      1.724551   256A      1.734601   257A      1.743308  
     258A      1.746735   259A      1.760694   260A      1.770076  
     261A      1.777492   262A      1.785918   263A      1.794123  
     264A      1.804431   265A      1.814196   266A      1.829454  
     267A      1.842180   268A      1.851893   269A      1.863780  
     270A      1.871110   271A      1.880962   272A      1.881565  
     273A      1.892478   274A      1.899787   275A      1.915357  
     276A      1.927340   277A      1.939855   278A      1.955809  
     279A      1.962661   280A      1.975729   281A      1.983290  
     282A      1.997895   283A      2.011557   284A      2.019061  
     285A      2.029804   286A      2.035711   287A      2.046047  
     288A      2.061564   289A      2.065829   290A      2.084379  
     291A      2.097481   292A      2.118383   293A      2.151120  
     294A      2.156607   295A      2.171517   296A      2.172652  
     297A      2.183148   298A      2.197407   299A      2.215588  
     300A      2.229368   301A      2.249445   302A      2.253500  
     303A      2.280353   304A      2.288405   305A      2.291943  
     306A      2.316876   307A      2.337134   308A      2.350357  
     309A      2.358146   310A      2.366455   311A      2.385446  
     312A      2.405462   313A      2.420499   314A      2.426799  
     315A      2.464204   316A      2.480993   317A      2.499711  
     318A      2.532283   319A      2.560189   320A      2.610987  
     321A      2.641763   322A      2.646050   323A      2.676829  
     324A      2.717887   325A      2.747334   326A      2.754734  
     327A      2.792095   328A      2.812027   329A      2.825155  
     330A      2.860540   331A      2.873560   332A      2.895306  
     333A      2.943052   334A      2.958389   335A      2.960883  
     336A      2.993367   337A      3.015959   338A      3.034243  
     339A      3.047007   340A      3.064342   341A      3.084730  
     342A      3.117098   343A      3.146779   344A      3.177641  
     345A      3.223470   346A      3.247238   347A      3.255150  
     348A      3.265243   349A      3.328681   350A      3.340781  
     351A      3.363030   352A      3.416416   353A      3.436710  
     354A      3.439506   355A      3.469864   356A      3.491487  
     357A      3.497323   358A      3.524434   359A      3.542669  
     360A      3.558649   361A      3.594041   362A      3.621631  
     363A      3.643140   364A      3.645333   365A      3.662685  
     366A      3.675978   367A      3.683719   368A      3.699402  
     369A      3.699682   370A      3.708736   371A      3.731865  
     372A      3.748991   373A      3.768120   374A      3.777337  
     375A      3.783899   376A      3.791181   377A      3.801340  
     378A      3.808431   379A      3.817463   380A      3.845514  
     381A      3.849133   382A      3.885756   383A      3.901360  
     384A      3.915682   385A      3.943672   386A      3.949254  
     387A      3.968813   388A      3.976761   389A      3.979732  
     390A      3.991021   391A      4.004977   392A      4.014324  
     393A      4.021240   394A      4.051540   395A      4.074374  
     396A      4.084848   397A      4.092774   398A      4.097643  
     399A      4.136064   400A      4.139577   401A      4.160386  
     402A      4.164614   403A      4.175582   404A      4.180054  
     405A      4.201075   406A      4.217428   407A      4.225755  
     408A      4.244823   409A      4.254878   410A      4.257786  
     411A      4.287759   412A      4.300359   413A      4.312712  
     414A      4.329903   415A      4.366848   416A      4.377952  
     417A      4.383258   418A      4.412015   419A      4.425125  
     420A      4.436519   421A      4.483707   422A      4.496828  
     423A      4.516801   424A      4.547969   425A      4.567219  
     426A      4.571959   427A      4.591076   428A      4.603483  
     429A      4.611743   430A      4.631120   431A      4.648277  
     432A      4.658279   433A      4.680123   434A      4.703512  
     435A      4.729019   436A      4.750541   437A      4.754944  
     438A      4.774728   439A      4.794594   440A      4.807010  
     441A      4.820663   442A      4.842402   443A      4.852123  
     444A      4.871372   445A      4.872124   446A      4.895683  
     447A      4.909386   448A      4.929219   449A      4.943487  
     450A      4.954981   451A      4.967097   452A      5.001486  
     453A      5.002247   454A      5.016647   455A      5.022358  
     456A      5.030956   457A      5.053783   458A      5.075097  
     459A      5.084925   460A      5.100005   461A      5.135116  
     462A      5.155373   463A      5.174484   464A      5.184585  
     465A      5.209419   466A      5.225735   467A      5.235505  
     468A      5.262293   469A      5.269366   470A      5.281403  
     471A      5.301583   472A      5.338394   473A      5.372621  
     474A      5.381847   475A      5.391594   476A      5.407201  
     477A      5.430829   478A      5.459529   479A      5.481798  
     480A      5.503293   481A      5.516650   482A      5.529505  
     483A      5.562812   484A      5.580270   485A      5.582142  
     486A      5.610240   487A      5.623022   488A      5.650011  
     489A      5.663305   490A      5.692495   491A      5.708777  
     492A      5.733946   493A      5.743932   494A      5.761750  
     495A      5.803811   496A      5.829399   497A      5.859601  
     498A      5.877508   499A      5.998675   500A      6.019889  
     501A      6.057769   502A      6.093156   503A      6.103696  
     504A      6.153837   505A      6.170621   506A      6.186301  
     507A      6.233561   508A      6.253139   509A      6.282152  
     510A      6.299791   511A      6.320108   512A      6.355837  
     513A      6.404424   514A      6.437635   515A      6.710434  
     516A      6.727661   517A      6.733087   518A      6.773933  
     519A      6.784606   520A      6.853563   521A      6.885755  
     522A      6.892451   523A      6.992447   524A      7.025472  
     525A      7.061847   526A      7.106878   527A      7.210546  
     528A      7.253214   529A      7.337652   530A      7.353406  
     531A      7.445350   532A      7.486439   533A      7.525681  
     534A      7.586273   535A      7.605181   536A      7.614549  
     537A      7.706128   538A      7.728040   539A      7.862012  
     540A      7.910714   541A      8.033513   542A      8.058039  
     543A      8.255412   544A      8.327868   545A      8.666558  
     546A      8.707975   547A     16.409561   548A     16.977692  
     549A     17.771268   550A     17.852272   551A     18.573589  
     552A     18.827147  

    Final Occupation by Irrep:
              A 
    DOCC [    26 ]
    NA   [    26 ]
    NB   [    26 ]

  @DF-RHF Final Energy:  -308.29374712981712

   => Energetics <=

    Nuclear Repulsion Energy =            255.3607221726340697
    One-Electron Energy =                -926.6619476764435603
    Two-Electron Energy =                 363.0074783739923987
    Total Energy =                       -308.2937471298171204

Computation Completed


Properties will be evaluated at   0.000000,   0.000000,   0.000000 [a0]

Properties computed using the SCF density matrix


 Multipole Moments:

 ------------------------------------------------------------------------------------
     Multipole            Electronic (a.u.)      Nuclear  (a.u.)        Total (a.u.)
 ------------------------------------------------------------------------------------

 L = 1.  Multiply by 2.5417464519 to convert [e a0] to [Debye]
 Dipole X            :         -1.0120748           -0.0000132           -1.0120881
 Dipole Y            :          0.2712318           -0.0000000            0.2712318
 Dipole Z            :          0.2640104            0.0000057            0.2640161
 Magnitude           :                                                    1.0805524

 ------------------------------------------------------------------------------------

*** tstop() called on Moses-MBP.lan at Thu Feb 27 17:14:14 2025
Module time:
	user time   =      84.62 seconds =       1.41 minutes
	system time =       6.77 seconds =       0.11 minutes
	total time  =         11 seconds =       0.18 minutes
Total time:
	user time   =     264.96 seconds =       4.42 minutes
	system time =      23.35 seconds =       0.39 minutes
	total time  =         37 seconds =       0.62 minutes

*** tstart() called on Moses-MBP.lan
*** at Thu Feb 27 17:14:14 2025


  //>>>>>>>>>>>>>>>>>>>>>>>>>>>>>>>>>>>//
  //               DFMP2               //
  //<<<<<<<<<<<<<<<<<<<<<<<<<<<<<<<<<<<//

   => Loading Basis Set <=

    Name: (AUG-CC-PVTZ AUX)
    Role: RIFIT
    Keyword: DF_BASIS_MP2
    atoms 1-2, 10-11 entry C          line   148 file /Users/moseschung/miniconda3/envs/psi4/share/psi4/basis/aug-cc-pvtz-ri.gbs 
    atoms 3, 12      entry O          line   264 file /Users/moseschung/miniconda3/envs/psi4/share/psi4/basis/aug-cc-pvtz-ri.gbs 
    atoms 4-9, 13-18 entry H          line    30 file /Users/moseschung/miniconda3/envs/psi4/share/psi4/basis/aug-cc-pvtz-ri.gbs 

	 --------------------------------------------------------
	                          DF-MP2                         
	      2nd-Order Density-Fitted Moller-Plesset Theory     
	              RMP2 Wavefunction,  10 Threads             
	                                                         
	        Rob Parrish, Justin Turney, Andy Simmonett,      
	           Ed Hohenstein, and C. David Sherrill          
	 --------------------------------------------------------

   => Auxiliary Basis Set <=

  Basis Set: (AUG-CC-PVTZ AUX)
    Blend: AUG-CC-PVTZ-RI
    Number of shells: 336
    Number of basis functions: 1188
    Number of Cartesian functions: 1476
    Spherical Harmonics?: true
    Max angular momentum: 4

	 --------------------------------------------------------
	                 NBF =   552, NAUX =  1188
	 --------------------------------------------------------
	   CLASS    FOCC     OCC    AOCC    AVIR     VIR    FVIR
	   PAIRS       0      26      26     526     526       0
	 --------------------------------------------------------

	-----------------------------------------------------------
	 ==================> DF-MP2 Energies <==================== 
	-----------------------------------------------------------
	 Reference Energy          =    -308.2937471298171204 [Eh]
	 Singles Energy            =      -0.0000000000000000 [Eh]
	 Same-Spin Energy          =      -0.2996843666086929 [Eh]
	 Opposite-Spin Energy      =      -1.0399262880770268 [Eh]
	 Correlation Energy        =      -1.3396106546857196 [Eh]
	 Total Energy              =    -309.6333577845028344 [Eh]
	-----------------------------------------------------------
	 ================> DF-SCS-MP2 Energies <================== 
	-----------------------------------------------------------
	 SCS Same-Spin Scale       =       0.3333333333333333 [-]
	 SCS Opposite-Spin Scale   =       1.2000000000000000 [-]
	 SCS Same-Spin Energy      =      -0.0998947888695643 [Eh]
	 SCS Opposite-Spin Energy  =      -1.2479115456924321 [Eh]
	 SCS Correlation Energy    =      -1.3478063345619964 [Eh]
	 SCS Total Energy          =    -309.6415534643791148 [Eh]
	-----------------------------------------------------------


*** tstop() called on Moses-MBP.lan at Thu Feb 27 17:14:19 2025
Module time:
	user time   =      32.12 seconds =       0.54 minutes
	system time =       2.41 seconds =       0.04 minutes
	total time  =          5 seconds =       0.08 minutes
Total time:
	user time   =     297.09 seconds =       4.95 minutes
	system time =      25.76 seconds =       0.43 minutes
	total time  =         42 seconds =       0.70 minutes

    Psi4 stopped on: Thursday, 27 February 2025 05:14PM
    Psi4 wall time for execution: 0:00:15.53


  //>>>>>>>>>>>>>>>>>>>>>>>>>>>>>>>>>>>//
  //          ManyBody Results         //
  //<<<<<<<<<<<<<<<<<<<<<<<<<<<<<<<<<<<//


   ==> N-Body: Counterpoise Corrected (CP) energies <==

        n-Body     Total Energy            Interaction Energy                          N-body Contribution to Interaction Energy
                   [Eh]                    [Eh]                  [kcal/mol]            [Eh]                  [kcal/mol]
             1  N/A                         0.000000000000        0.000000000000        0.000000000000        0.000000000000
  FULL/RTN   2  N/A                        -0.009531788106       -5.981287338423       -0.009531788106       -5.981287338423


    Psi4 stopped on: Thursday, 27 February 2025 05:14PM
    Psi4 wall time for execution: 0:00:43.27

*** Psi4 exiting successfully. Buy a developer a beer!
