
    -----------------------------------------------------------------------
          Psi4: An Open-Source Ab Initio Electronic Structure Package
                               Psi4 1.9.1 release

                         Git: Rev {} zzzzzzz 


    D. G. A. Smith, L. A. Burns, A. C. Simmonett, R. M. Parrish,
    M. C. Schieber, R. Galvelis, P. Kraus, H. Kruse, R. Di Remigio,
    A. Alenaizan, A. M. James, S. Lehtola, J. P. Misiewicz, M. Scheurer,
    R. A. Shaw, J. B. Schriber, Y. Xie, Z. L. Glick, D. A. Sirianni,
    J. S. O'Brien, J. M. Waldrop, A. Kumar, E. G. Hohenstein,
    B. P. Pritchard, B. R. Brooks, H. F. Schaefer III, A. Yu. Sokolov,
    K. Patkowski, A. E. DePrince III, U. Bozkaya, R. A. King,
    F. A. Evangelista, J. M. Turney, T. D. Crawford, C. D. Sherrill,
    J. Chem. Phys. 152(18) 184108 (2020). https://doi.org/10.1063/5.0006002

                            Additional Code Authors
    E. T. Seidl, C. L. Janssen, E. F. Valeev, M. L. Leininger,
    J. F. Gonthier, R. M. Richard, H. R. McAlexander, M. Saitow, X. Wang,
    P. Verma, M. H. Lechner, A. Jiang, S. Behnle, A. G. Heide,
    M. F. Herbst, and D. L. Poole

             Previous Authors, Complete List of Code Contributors,
                       and Citations for Specific Modules
    https://github.com/psi4/psi4/blob/master/codemeta.json
    https://github.com/psi4/psi4/graphs/contributors
    http://psicode.org/psi4manual/master/introduction.html#citing-psifour

    -----------------------------------------------------------------------


    Psi4 started on: Thursday, 27 February 2025 05:46PM

    Process ID: 32138
    Host:       Moses-MBP.lan
    PSIDATADIR: /Users/moseschung/miniconda3/envs/psi4/share/psi4
    Memory:     500.0 MiB
    Threads:    10
    
  ==> Input File <==

--------------------------------------------------------------------------
MEMORY 10 GB

molecule dimer {
0 1
C   -1.604285   0.904735   0.815582
C   -1.613329  -0.262638  -0.137199
O   -2.903206  -0.559753  -0.625737
H   -3.485346  -0.688585   0.127148
H   -0.582036   1.146838   1.113213
H   -2.183378   0.681090   1.717452
H   -2.043517   1.785981   0.343064
H   -1.163724  -1.144697   0.344271
H   -0.995953  -0.038058  -1.010236
--
0 1
C    1.952342  -1.151209   0.460550
C    2.563812   0.055049  -0.193818
O    1.527944   0.977572  -0.454703
H    1.893312   1.751214  -0.887803
H    2.713795  -1.896737   0.694150
H    1.210476  -1.608001  -0.197857
H    1.450411  -0.867626   1.388394
H    3.071878  -0.236948  -1.123827
H    3.324938   0.497354   0.464849

units ang
no_reorient
no_com
symmetry c1
}

set {
basis        aug-cc-pVTZ
scf_type     df
}

energy("mp2", bsse_type="cp")
--------------------------------------------------------------------------

  Memory set to   9.313 GiB by Python driver.

Scratch directory: /tmp/

  //>>>>>>>>>>>>>>>>>>>>>>>>>>>>>>>>>>>>>//
  // ManyBody Setup: N-Body Levels [1, 2]//
  //<<<<<<<<<<<<<<<<<<<<<<<<<<<<<<<<<<<<<//

        Number of 1-body computations:     2
        Number of 2-body computations:     1

    -----------------------------------------------------------------------
          Psi4: An Open-Source Ab Initio Electronic Structure Package
                               Psi4 1.9.1 release

                         Git: Rev {} zzzzzzz 


    D. G. A. Smith, L. A. Burns, A. C. Simmonett, R. M. Parrish,
    M. C. Schieber, R. Galvelis, P. Kraus, H. Kruse, R. Di Remigio,
    A. Alenaizan, A. M. James, S. Lehtola, J. P. Misiewicz, M. Scheurer,
    R. A. Shaw, J. B. Schriber, Y. Xie, Z. L. Glick, D. A. Sirianni,
    J. S. O'Brien, J. M. Waldrop, A. Kumar, E. G. Hohenstein,
    B. P. Pritchard, B. R. Brooks, H. F. Schaefer III, A. Yu. Sokolov,
    K. Patkowski, A. E. DePrince III, U. Bozkaya, R. A. King,
    F. A. Evangelista, J. M. Turney, T. D. Crawford, C. D. Sherrill,
    J. Chem. Phys. 152(18) 184108 (2020). https://doi.org/10.1063/5.0006002

                            Additional Code Authors
    E. T. Seidl, C. L. Janssen, E. F. Valeev, M. L. Leininger,
    J. F. Gonthier, R. M. Richard, H. R. McAlexander, M. Saitow, X. Wang,
    P. Verma, M. H. Lechner, A. Jiang, S. Behnle, A. G. Heide,
    M. F. Herbst, and D. L. Poole

             Previous Authors, Complete List of Code Contributors,
                       and Citations for Specific Modules
    https://github.com/psi4/psi4/blob/master/codemeta.json
    https://github.com/psi4/psi4/graphs/contributors
    http://psicode.org/psi4manual/master/introduction.html#citing-psifour

    -----------------------------------------------------------------------


    Psi4 started on: Thursday, 27 February 2025 05:46PM

    Process ID: 32138
    Host:       Moses-MBP.lan
    PSIDATADIR: /Users/moseschung/miniconda3/envs/psi4/share/psi4
    Memory:     9.3 GiB
    Threads:    10
    
  ==> Input QCSchema <==

--------------------------------------------------------------------------
{'driver': 'energy',
 'extras': {'psiapi': True, 'wfn_qcvars_only': True},
 'id': None,
 'keywords': {'SCF_TYPE': 'DF', 'function_kwargs': {}},
 'model': {'basis': 'aug-cc-pvtz', 'method': 'mp2'},
 'molecule': {'atom_labels': ['', '', '', '', '', '', '', '', '', '', '', '', '', '', '', '', '', ''],
              'atomic_numbers': [6, 6, 8, 1, 1, 1, 1, 1, 1, 6, 6, 8, 1, 1, 1, 1, 1, 1],
              'extras': {},
              'fix_com': True,
              'fix_orientation': True,
              'fix_symmetry': 'c1',
              'fragment_charges': [0.0, 0.0],
              'fragment_multiplicities': [1, 1],
              'fragments': [[0, 1, 2, 3, 4, 5, 6, 7, 8], [9, 10, 11, 12, 13, 14, 15, 16, 17]],
              'geometry': [-3.0316592771801116, 1.709701366116088, 1.5412266128531464, -3.0487499602587524,
                           -0.49631389013799304, -0.25926853468668853, -5.486264225785919, -1.0577798679033956,
                           -1.182471556565605, -6.5863493924599394, -1.3012370640983786, 0.24027489739971195,
                           -1.0998886351569725, 2.1672097302678046, 2.1036676892992854, -4.125986448349861,
                           1.2870735667880722, 3.245513913619798, -3.861687462717205, 3.3750149552712974,
                           0.6482970035040643, -2.1991196456222855, -2.1631638266331996, 0.650577902937492,
                           -1.8820784038281002, -0.07191919688267402, -1.9090693620780144, 3.689391683228587,
                           -2.175469723162181, 0.8703133670796028, 4.844902517162285, 0.10402753348032796,
                           -0.3662629381839853, 2.8873956950365356, 1.84734334791606, -0.8592641384240509,
                           3.577841150042812, 3.309314847067505, -1.6777045233598362, 5.128329310636827,
                           -3.5843134620225046, 1.3117533899865514, 2.2874681214396904, -3.0386814994623133,
                           -0.37389554200470954, 2.7408795593514137, -1.6395755193264736, 2.6236844142288955,
                           5.805008110819142, -0.44776682597498146, -2.1237252423948942, 6.2832222041275,
                           0.9398628474009527, 0.8784372996929459],
              'mass_numbers': [12, 12, 16, 1, 1, 1, 1, 1, 1, 12, 12, 16, 1, 1, 1, 1, 1, 1],
              'masses': [12.0, 12.0, 15.99491461957, 1.00782503223, 1.00782503223, 1.00782503223, 1.00782503223,
                         1.00782503223, 1.00782503223, 12.0, 12.0, 15.99491461957, 1.00782503223, 1.00782503223,
                         1.00782503223, 1.00782503223, 1.00782503223, 1.00782503223],
              'molecular_charge': 0.0,
              'molecular_multiplicity': 1,
              'name': 'dimer',
              'provenance': {'creator': 'QCElemental',
                             'routine': 'qcelemental.molparse.from_string',
                             'version': '0.29.0'},
              'real': [False, False, False, False, False, False, False, False, False, True, True, True, True, True,
                       True, True, True, True],
              'schema_name': 'qcschema_molecule',
              'schema_version': 2,
              'symbols': ['C', 'C', 'O', 'H', 'H', 'H', 'H', 'H', 'H', 'C', 'C', 'O', 'H', 'H', 'H', 'H', 'H', 'H'],
              'validated': True},
 'protocols': {'stdout': True},
 'provenance': {'creator': 'QCElemental', 'routine': 'qcelemental.models.results', 'version': '0.29.0'},
 'schema_name': 'qcschema_input',
 'schema_version': 1}
--------------------------------------------------------------------------

Scratch directory: /tmp/
   => Libint2 <=

    Primary   basis highest AM E, G, H:  6, 6, 3
    Auxiliary basis highest AM E, G, H:  7, 7, 4
    Onebody   basis highest AM E, G, H:  -, -, -
    Solid Harmonics ordering:            Gaussian

*** tstart() called on Moses-MBP.lan
*** at Thu Feb 27 17:46:06 2025

   => Loading Basis Set <=

    Name: AUG-CC-PVTZ
    Role: ORBITAL
    Keyword: BASIS
    atoms 1-2, 10-11 entry C          line   239 file /Users/moseschung/miniconda3/envs/psi4/share/psi4/basis/aug-cc-pvtz.gbs 
    atoms 3, 12      entry O          line   331 file /Users/moseschung/miniconda3/envs/psi4/share/psi4/basis/aug-cc-pvtz.gbs 
    atoms 4-9, 13-18 entry H          line    40 file /Users/moseschung/miniconda3/envs/psi4/share/psi4/basis/aug-cc-pvtz.gbs 


         ---------------------------------------------------------
                                   SCF
               by Justin Turney, Rob Parrish, Andy Simmonett
                          and Daniel G. A. Smith
                              RHF Reference
                       10 Threads,   9536 MiB Core
         ---------------------------------------------------------

  ==> Geometry <==

    Molecular point group: c1
    Full point group: C1

    Geometry (in Bohr), charge = 0, multiplicity = 1:

       Center              X                  Y                   Z               Mass       
    ------------   -----------------  -----------------  -----------------  -----------------
      Gh(C)          -3.031659277180     1.709701366116     1.541226612853    12.000000000000
      Gh(C)          -3.048749960259    -0.496313890138    -0.259268534687    12.000000000000
      Gh(O)          -5.486264225786    -1.057779867903    -1.182471556566    15.994914619570
      Gh(H)          -6.586349392460    -1.301237064098     0.240274897400     1.007825032230
      Gh(H)          -1.099888635157     2.167209730268     2.103667689299     1.007825032230
      Gh(H)          -4.125986448350     1.287073566788     3.245513913620     1.007825032230
      Gh(H)          -3.861687462717     3.375014955271     0.648297003504     1.007825032230
      Gh(H)          -2.199119645622    -2.163163826633     0.650577902937     1.007825032230
      Gh(H)          -1.882078403828    -0.071919196883    -1.909069362078     1.007825032230
         C            3.689391683229    -2.175469723162     0.870313367080    12.000000000000
         C            4.844902517162     0.104027533480    -0.366262938184    12.000000000000
         O            2.887395695037     1.847343347916    -0.859264138424    15.994914619570
         H            3.577841150043     3.309314847068    -1.677704523360     1.007825032230
         H            5.128329310637    -3.584313462023     1.311753389987     1.007825032230
         H            2.287468121440    -3.038681499462    -0.373895542005     1.007825032230
         H            2.740879559351    -1.639575519326     2.623684414229     1.007825032230
         H            5.805008110819    -0.447766825975    -2.123725242395     1.007825032230
         H            6.283222204128     0.939862847401     0.878437299693     1.007825032230

  Running in c1 symmetry.

  Rotational constants: A =      0.17755  B =      0.03752  C =      0.03495 [cm^-1]
  Rotational constants: A =   5322.68249  B =   1124.90295  C =   1047.87431 [MHz]
  Nuclear repulsion =   82.270427369023665

  Charge       = 0
  Multiplicity = 1
  Electrons    = 26
  Nalpha       = 13
  Nbeta        = 13

  ==> Algorithm <==

  SCF Algorithm Type is DF.
  DIIS enabled.
  MOM disabled.
  Fractional occupation disabled.
  Guess Type is SAD.
  Energy threshold   = 1.00e-08
  Density threshold  = 1.00e-08
  Integral threshold = 1.00e-12

  ==> Primary Basis <==

  Basis Set: AUG-CC-PVTZ
    Blend: AUG-CC-PVTZ
    Number of shells: 192
    Number of basis functions: 552
    Number of Cartesian functions: 630
    Spherical Harmonics?: true
    Max angular momentum: 3

   => Loading Basis Set <=

    Name: (AUG-CC-PVTZ AUX)
    Role: JKFIT
    Keyword: DF_BASIS_SCF
    atoms 1-2, 10-11 entry C          line   162 file /Users/moseschung/miniconda3/envs/psi4/share/psi4/basis/aug-cc-pvtz-jkfit.gbs 
    atoms 3, 12      entry O          line   286 file /Users/moseschung/miniconda3/envs/psi4/share/psi4/basis/aug-cc-pvtz-jkfit.gbs 
    atoms 4-9, 13-18 entry H          line    70 file /Users/moseschung/miniconda3/envs/psi4/share/psi4/basis/aug-cc-pvtz-jkfit.gbs 

  ==> Integral Setup <==

  DFHelper Memory: AOs need 2.594 GiB; user supplied 6.985 GiB. 
  Using in-core AOs.

  ==> MemDFJK: Density-Fitted J/K Matrices <==

    J tasked:                   Yes
    K tasked:                   Yes
    wK tasked:                   No
    OpenMP threads:              10
    Memory [MiB]:              7152
    Algorithm:                 Core
    Schwarz Cutoff:           1E-12
    Mask sparsity (%):       6.3609
    Fitting Condition:        1E-10

   => Auxiliary Basis Set <=

  Basis Set: (AUG-CC-PVTZ AUX)
    Blend: AUG-CC-PVTZ-JKFIT
    Number of shells: 348
    Number of basis functions: 1176
    Number of Cartesian functions: 1446
    Spherical Harmonics?: true
    Max angular momentum: 4

  Minimum eigenvalue in the overlap matrix is 8.8681218606E-06.
  Reciprocal condition number of the overlap matrix is 4.8153038358E-07.
    Using symmetric orthogonalization.

  ==> Pre-Iterations <==

  SCF Guess: Superposition of Atomic Densities via on-the-fly atomic UHF (no occupation information).

   -------------------------
    Irrep   Nso     Nmo    
   -------------------------
     A        552     552 
   -------------------------
    Total     552     552
   -------------------------

  ==> Iterations <==

                           Total Energy        Delta E     RMS |[F,P]|

   @DF-RHF iter SAD:  -153.45006626650328   -1.53450e+02   0.00000e+00 
   @DF-RHF iter   1:  -153.99874429638461   -5.48678e-01   9.60878e-04 DIIS/ADIIS
   @DF-RHF iter   2:  -154.11086951910775   -1.12125e-01   5.34987e-04 DIIS/ADIIS
   @DF-RHF iter   3:  -154.14388426299436   -3.30147e-02   8.44127e-05 DIIS
   @DF-RHF iter   4:  -154.14548080039478   -1.59654e-03   3.23445e-05 DIIS
   @DF-RHF iter   5:  -154.14566467114969   -1.83871e-04   5.75906e-06 DIIS
   @DF-RHF iter   6:  -154.14567426452356   -9.59337e-06   1.27427e-06 DIIS
   @DF-RHF iter   7:  -154.14567481912104   -5.54597e-07   3.91357e-07 DIIS
   @DF-RHF iter   8:  -154.14567486280956   -4.36885e-08   1.04975e-07 DIIS
   @DF-RHF iter   9:  -154.14567486699309   -4.18353e-09   2.53163e-08 DIIS
   @DF-RHF iter  10:  -154.14567486725710   -2.64009e-10   4.82100e-09 DIIS
  Energy and wave function converged.


  ==> Post-Iterations <==

    Orbital Energies [Eh]
    ---------------------

    Doubly Occupied:                                                      

       1A    -20.555689     2A    -11.273630     3A    -11.210787  
       4A     -1.361783     5A     -1.014063     6A     -0.833313  
       7A     -0.703530     8A     -0.645657     9A     -0.573712  
      10A     -0.533603    11A     -0.524036    12A     -0.489024  
      13A     -0.440135  

    Virtual:                                                              

      14A      0.026056    15A      0.032770    16A      0.036245  
      17A      0.039021    18A      0.051925    19A      0.052992  
      20A      0.053744    21A      0.062028    22A      0.066175  
      23A      0.077945    24A      0.080176    25A      0.084342  
      26A      0.102880    27A      0.111551    28A      0.115057  
      29A      0.121366    30A      0.123436    31A      0.129988  
      32A      0.132676    33A      0.137887    34A      0.144488  
      35A      0.148397    36A      0.152130    37A      0.157185  
      38A      0.161402    39A      0.174609    40A      0.179890  
      41A      0.190748    42A      0.196878    43A      0.205029  
      44A      0.219672    45A      0.223629    46A      0.228425  
      47A      0.234554    48A      0.249002    49A      0.255578  
      50A      0.262560    51A      0.265892    52A      0.273582  
      53A      0.283275    54A      0.289187    55A      0.300911  
      56A      0.303543    57A      0.307424    58A      0.314091  
      59A      0.319887    60A      0.322032    61A      0.327745  
      62A      0.335747    63A      0.342015    64A      0.346965  
      65A      0.354276    66A      0.358533    67A      0.365840  
      68A      0.367580    69A      0.373430    70A      0.377416  
      71A      0.381008    72A      0.384757    73A      0.390932  
      74A      0.405423    75A      0.407121    76A      0.409798  
      77A      0.425249    78A      0.426155    79A      0.435057  
      80A      0.437916    81A      0.442583    82A      0.451012  
      83A      0.453872    84A      0.458763    85A      0.467501  
      86A      0.469835    87A      0.475656    88A      0.480422  
      89A      0.489270    90A      0.492507    91A      0.500395  
      92A      0.505667    93A      0.510422    94A      0.517013  
      95A      0.522099    96A      0.524617    97A      0.530072  
      98A      0.534762    99A      0.542346   100A      0.550266  
     101A      0.554478   102A      0.559669   103A      0.564917  
     104A      0.577722   105A      0.582684   106A      0.587521  
     107A      0.597164   108A      0.607527   109A      0.616301  
     110A      0.625085   111A      0.635369   112A      0.635690  
     113A      0.646484   114A      0.651445   115A      0.664370  
     116A      0.669143   117A      0.674465   118A      0.679933  
     119A      0.694454   120A      0.699898   121A      0.712296  
     122A      0.718231   123A      0.728070   124A      0.738823  
     125A      0.750283   126A      0.753211   127A      0.782244  
     128A      0.793729   129A      0.801638   130A      0.815128  
     131A      0.820171   132A      0.830269   133A      0.846950  
     134A      0.850218   135A      0.862951   136A      0.867286  
     137A      0.876486   138A      0.879215   139A      0.895470  
     140A      0.902145   141A      0.909049   142A      0.924027  
     143A      0.927642   144A      0.933374   145A      0.943304  
     146A      0.946776   147A      0.960060   148A      0.963296  
     149A      0.972027   150A      0.972430   151A      0.982839  
     152A      0.997166   153A      1.003804   154A      1.013059  
     155A      1.018631   156A      1.028855   157A      1.035627  
     158A      1.038818   159A      1.044833   160A      1.052642  
     161A      1.054607   162A      1.060719   163A      1.069158  
     164A      1.078965   165A      1.083937   166A      1.087001  
     167A      1.098793   168A      1.106623   169A      1.110463  
     170A      1.114346   171A      1.120236   172A      1.129414  
     173A      1.139364   174A      1.140780   175A      1.146825  
     176A      1.148750   177A      1.168188   178A      1.170591  
     179A      1.175339   180A      1.185966   181A      1.189705  
     182A      1.193589   183A      1.204307   184A      1.212666  
     185A      1.225191   186A      1.229767   187A      1.231015  
     188A      1.243874   189A      1.252433   190A      1.253014  
     191A      1.262337   192A      1.267592   193A      1.270744  
     194A      1.287168   195A      1.288907   196A      1.297712  
     197A      1.308135   198A      1.318588   199A      1.332481  
     200A      1.344965   201A      1.345949   202A      1.365088  
     203A      1.370160   204A      1.373367   205A      1.392043  
     206A      1.401695   207A      1.406129   208A      1.414817  
     209A      1.424151   210A      1.428546   211A      1.435127  
     212A      1.442142   213A      1.461708   214A      1.472800  
     215A      1.475292   216A      1.486665   217A      1.494579  
     218A      1.504683   219A      1.522617   220A      1.525226  
     221A      1.532746   222A      1.553529   223A      1.560753  
     224A      1.571053   225A      1.577073   226A      1.586481  
     227A      1.593783   228A      1.605155   229A      1.610426  
     230A      1.622041   231A      1.637744   232A      1.644936  
     233A      1.652352   234A      1.656199   235A      1.674377  
     236A      1.681888   237A      1.703794   238A      1.721372  
     239A      1.732509   240A      1.734455   241A      1.739890  
     242A      1.745926   243A      1.757735   244A      1.760276  
     245A      1.779142   246A      1.805130   247A      1.808996  
     248A      1.825579   249A      1.836040   250A      1.849840  
     251A      1.860440   252A      1.865611   253A      1.878049  
     254A      1.889075   255A      1.903827   256A      1.917396  
     257A      1.936305   258A      1.943714   259A      1.956855  
     260A      1.969640   261A      1.975755   262A      1.979751  
     263A      1.990421   264A      1.996310   265A      2.009446  
     266A      2.028681   267A      2.033749   268A      2.045444  
     269A      2.053407   270A      2.063110   271A      2.073773  
     272A      2.076180   273A      2.100986   274A      2.112933  
     275A      2.127995   276A      2.141376   277A      2.148372  
     278A      2.151760   279A      2.163919   280A      2.178374  
     281A      2.200761   282A      2.203742   283A      2.207806  
     284A      2.230019   285A      2.252090   286A      2.252886  
     287A      2.269031   288A      2.276352   289A      2.309860  
     290A      2.320726   291A      2.324920   292A      2.349888  
     293A      2.350733   294A      2.363029   295A      2.365101  
     296A      2.430414   297A      2.444509   298A      2.452093  
     299A      2.462053   300A      2.488827   301A      2.513141  
     302A      2.522358   303A      2.552908   304A      2.576779  
     305A      2.587863   306A      2.588043   307A      2.607530  
     308A      2.638580   309A      2.663996   310A      2.681956  
     311A      2.713570   312A      2.734399   313A      2.746291  
     314A      2.756413   315A      2.777616   316A      2.791502  
     317A      2.805232   318A      2.818237   319A      2.838787  
     320A      2.851142   321A      2.884042   322A      2.896239  
     323A      2.928869   324A      2.933249   325A      2.965930  
     326A      2.975431   327A      2.995729   328A      3.035228  
     329A      3.046602   330A      3.061450   331A      3.095430  
     332A      3.111098   333A      3.161996   334A      3.195126  
     335A      3.235568   336A      3.257917   337A      3.329859  
     338A      3.343454   339A      3.347596   340A      3.358583  
     341A      3.393918   342A      3.434216   343A      3.468396  
     344A      3.475396   345A      3.498550   346A      3.562842  
     347A      3.574226   348A      3.602210   349A      3.638601  
     350A      3.657007   351A      3.669738   352A      3.686905  
     353A      3.698990   354A      3.738548   355A      3.750353  
     356A      3.763639   357A      3.791661   358A      3.807279  
     359A      3.820513   360A      3.865255   361A      3.882966  
     362A      3.901426   363A      3.917727   364A      3.935211  
     365A      3.993297   366A      4.010572   367A      4.021193  
     368A      4.030865   369A      4.061054   370A      4.071034  
     371A      4.104294   372A      4.111635   373A      4.133935  
     374A      4.145427   375A      4.170683   376A      4.183351  
     377A      4.184857   378A      4.192831   379A      4.211409  
     380A      4.225753   381A      4.234593   382A      4.264746  
     383A      4.269970   384A      4.285369   385A      4.297059  
     386A      4.312454   387A      4.327492   388A      4.340123  
     389A      4.347269   390A      4.360061   391A      4.385986  
     392A      4.423916   393A      4.455205   394A      4.478467  
     395A      4.495470   396A      4.499292   397A      4.530341  
     398A      4.539723   399A      4.559486   400A      4.564024  
     401A      4.569373   402A      4.580025   403A      4.588339  
     404A      4.609203   405A      4.627470   406A      4.639964  
     407A      4.655251   408A      4.670920   409A      4.684558  
     410A      4.705760   411A      4.726252   412A      4.743027  
     413A      4.764011   414A      4.776798   415A      4.781165  
     416A      4.794612   417A      4.820779   418A      4.839776  
     419A      4.860916   420A      4.868355   421A      4.894128  
     422A      4.897645   423A      4.917802   424A      4.929148  
     425A      4.939523   426A      4.946837   427A      4.969732  
     428A      5.014213   429A      5.034888   430A      5.041125  
     431A      5.059917   432A      5.071522   433A      5.089642  
     434A      5.097077   435A      5.097157   436A      5.133724  
     437A      5.143419   438A      5.169433   439A      5.190975  
     440A      5.202241   441A      5.220398   442A      5.232358  
     443A      5.255051   444A      5.258511   445A      5.282957  
     446A      5.324990   447A      5.350664   448A      5.361075  
     449A      5.373813   450A      5.380865   451A      5.406121  
     452A      5.413536   453A      5.438508   454A      5.482418  
     455A      5.502848   456A      5.520638   457A      5.531566  
     458A      5.542628   459A      5.550362   460A      5.564865  
     461A      5.584525   462A      5.596162   463A      5.616267  
     464A      5.638688   465A      5.642304   466A      5.657956  
     467A      5.695331   468A      5.698496   469A      5.748102  
     470A      5.757414   471A      5.787780   472A      5.795277  
     473A      5.834718   474A      5.845787   475A      5.848579  
     476A      5.870172   477A      5.895511   478A      5.974536  
     479A      6.004394   480A      6.060032   481A      6.085769  
     482A      6.108609   483A      6.143140   484A      6.168931  
     485A      6.175424   486A      6.204629   487A      6.220792  
     488A      6.261675   489A      6.272467   490A      6.303378  
     491A      6.324301   492A      6.394060   493A      6.412427  
     494A      6.470505   495A      6.513042   496A      6.709702  
     497A      6.767235   498A      6.794044   499A      6.851904  
     500A      6.857026   501A      6.889891   502A      6.961713  
     503A      7.002490   504A      7.024601   505A      7.037025  
     506A      7.125508   507A      7.130066   508A      7.140822  
     509A      7.199613   510A      7.349376   511A      7.358505  
     512A      7.394893   513A      7.539430   514A      7.569075  
     515A      7.711281   516A      7.793968   517A      7.841286  
     518A      7.852350   519A      7.862860   520A      7.882891  
     521A      7.888029   522A      7.930613   523A      7.971770  
     524A      8.064981   525A      8.117981   526A      8.184893  
     527A      8.278718   528A      8.298341   529A      8.319319  
     530A      8.383903   531A      8.425458   532A      8.594186  
     533A      8.662172   534A      8.926192   535A      8.985533  
     536A      9.990440   537A     10.056291   538A     10.259521  
     539A     10.396360   540A     10.668446   541A     10.761564  
     542A     11.085280   543A     12.031318   544A     12.347844  
     545A     13.322328   546A     14.121854   547A     15.960964  
     548A     18.149510   549A     18.482082   550A     53.047732  
     551A     54.544447   552A     66.570471  

    Final Occupation by Irrep:
              A 
    DOCC [    13 ]
    NA   [    13 ]
    NB   [    13 ]

  @DF-RHF Final Energy:  -154.14567486725710

   => Energetics <=

    Nuclear Repulsion Energy =             82.2704273690236647
    One-Electron Energy =                -372.5142786929314980
    Two-Electron Energy =                 136.0981764566507479
    Total Energy =                       -154.1456748672570995

Computation Completed


Properties will be evaluated at   0.000000,   0.000000,   0.000000 [a0]

Properties computed using the SCF density matrix


 Multipole Moments:

 ------------------------------------------------------------------------------------
     Multipole            Electronic (a.u.)      Nuclear  (a.u.)        Total (a.u.)
 ------------------------------------------------------------------------------------

 L = 1.  Multiply by 2.5417464519 to convert [e a0] to [Debye]
 Dipole X            :        -99.4922331          100.1276792            0.6354461
 Dipole Y            :          2.1863974           -2.1110660            0.0753315
 Dipole Z            :          3.0636981           -3.2112607           -0.1475627
 Magnitude           :                                                    0.6566896

 ------------------------------------------------------------------------------------

*** tstop() called on Moses-MBP.lan at Thu Feb 27 17:46:15 2025
Module time:
	user time   =      71.59 seconds =       1.19 minutes
	system time =       6.34 seconds =       0.11 minutes
	total time  =          9 seconds =       0.15 minutes
Total time:
	user time   =      71.59 seconds =       1.19 minutes
	system time =       6.34 seconds =       0.11 minutes
	total time  =          9 seconds =       0.15 minutes

*** tstart() called on Moses-MBP.lan
*** at Thu Feb 27 17:46:15 2025


  //>>>>>>>>>>>>>>>>>>>>>>>>>>>>>>>>>>>//
  //               DFMP2               //
  //<<<<<<<<<<<<<<<<<<<<<<<<<<<<<<<<<<<//

   => Loading Basis Set <=

    Name: (AUG-CC-PVTZ AUX)
    Role: RIFIT
    Keyword: DF_BASIS_MP2
    atoms 1-2, 10-11 entry C          line   148 file /Users/moseschung/miniconda3/envs/psi4/share/psi4/basis/aug-cc-pvtz-ri.gbs 
    atoms 3, 12      entry O          line   264 file /Users/moseschung/miniconda3/envs/psi4/share/psi4/basis/aug-cc-pvtz-ri.gbs 
    atoms 4-9, 13-18 entry H          line    30 file /Users/moseschung/miniconda3/envs/psi4/share/psi4/basis/aug-cc-pvtz-ri.gbs 

	 --------------------------------------------------------
	                          DF-MP2                         
	      2nd-Order Density-Fitted Moller-Plesset Theory     
	              RMP2 Wavefunction,  10 Threads             
	                                                         
	        Rob Parrish, Justin Turney, Andy Simmonett,      
	           Ed Hohenstein, and C. David Sherrill          
	 --------------------------------------------------------

   => Auxiliary Basis Set <=

  Basis Set: (AUG-CC-PVTZ AUX)
    Blend: AUG-CC-PVTZ-RI
    Number of shells: 336
    Number of basis functions: 1188
    Number of Cartesian functions: 1476
    Spherical Harmonics?: true
    Max angular momentum: 4

	 --------------------------------------------------------
	                 NBF =   552, NAUX =  1188
	 --------------------------------------------------------
	   CLASS    FOCC     OCC    AOCC    AVIR     VIR    FVIR
	   PAIRS       0      13      13     539     539       0
	 --------------------------------------------------------

	-----------------------------------------------------------
	 ==================> DF-MP2 Energies <==================== 
	-----------------------------------------------------------
	 Reference Energy          =    -154.1456748672570995 [Eh]
	 Singles Energy            =      -0.0000000000000000 [Eh]
	 Same-Spin Energy          =      -0.1481202994676678 [Eh]
	 Opposite-Spin Energy      =      -0.5180648534513101 [Eh]
	 Correlation Energy        =      -0.6661851529189780 [Eh]
	 Total Energy              =    -154.8118600201760842 [Eh]
	-----------------------------------------------------------
	 ================> DF-SCS-MP2 Energies <================== 
	-----------------------------------------------------------
	 SCS Same-Spin Scale       =       0.3333333333333333 [-]
	 SCS Opposite-Spin Scale   =       1.2000000000000000 [-]
	 SCS Same-Spin Energy      =      -0.0493734331558893 [Eh]
	 SCS Opposite-Spin Energy  =      -0.6216778241415721 [Eh]
	 SCS Correlation Energy    =      -0.6710512572974614 [Eh]
	 SCS Total Energy          =    -154.8167261245545490 [Eh]
	-----------------------------------------------------------


*** tstop() called on Moses-MBP.lan at Thu Feb 27 17:46:19 2025
Module time:
	user time   =      20.41 seconds =       0.34 minutes
	system time =       2.07 seconds =       0.03 minutes
	total time  =          4 seconds =       0.07 minutes
Total time:
	user time   =      92.00 seconds =       1.53 minutes
	system time =       8.41 seconds =       0.14 minutes
	total time  =         13 seconds =       0.22 minutes

    Psi4 stopped on: Thursday, 27 February 2025 05:46PM
    Psi4 wall time for execution: 0:00:12.60


    -----------------------------------------------------------------------
          Psi4: An Open-Source Ab Initio Electronic Structure Package
                               Psi4 1.9.1 release

                         Git: Rev {} zzzzzzz 


    D. G. A. Smith, L. A. Burns, A. C. Simmonett, R. M. Parrish,
    M. C. Schieber, R. Galvelis, P. Kraus, H. Kruse, R. Di Remigio,
    A. Alenaizan, A. M. James, S. Lehtola, J. P. Misiewicz, M. Scheurer,
    R. A. Shaw, J. B. Schriber, Y. Xie, Z. L. Glick, D. A. Sirianni,
    J. S. O'Brien, J. M. Waldrop, A. Kumar, E. G. Hohenstein,
    B. P. Pritchard, B. R. Brooks, H. F. Schaefer III, A. Yu. Sokolov,
    K. Patkowski, A. E. DePrince III, U. Bozkaya, R. A. King,
    F. A. Evangelista, J. M. Turney, T. D. Crawford, C. D. Sherrill,
    J. Chem. Phys. 152(18) 184108 (2020). https://doi.org/10.1063/5.0006002

                            Additional Code Authors
    E. T. Seidl, C. L. Janssen, E. F. Valeev, M. L. Leininger,
    J. F. Gonthier, R. M. Richard, H. R. McAlexander, M. Saitow, X. Wang,
    P. Verma, M. H. Lechner, A. Jiang, S. Behnle, A. G. Heide,
    M. F. Herbst, and D. L. Poole

             Previous Authors, Complete List of Code Contributors,
                       and Citations for Specific Modules
    https://github.com/psi4/psi4/blob/master/codemeta.json
    https://github.com/psi4/psi4/graphs/contributors
    http://psicode.org/psi4manual/master/introduction.html#citing-psifour

    -----------------------------------------------------------------------


    Psi4 started on: Thursday, 27 February 2025 05:46PM

    Process ID: 32138
    Host:       Moses-MBP.lan
    PSIDATADIR: /Users/moseschung/miniconda3/envs/psi4/share/psi4
    Memory:     9.3 GiB
    Threads:    10
    
  ==> Input QCSchema <==

--------------------------------------------------------------------------
{'driver': 'energy',
 'extras': {'psiapi': True, 'wfn_qcvars_only': True},
 'id': None,
 'keywords': {'SCF_TYPE': 'DF', 'function_kwargs': {}},
 'model': {'basis': 'aug-cc-pvtz', 'method': 'mp2'},
 'molecule': {'atom_labels': ['', '', '', '', '', '', '', '', '', '', '', '', '', '', '', '', '', ''],
              'atomic_numbers': [6, 6, 8, 1, 1, 1, 1, 1, 1, 6, 6, 8, 1, 1, 1, 1, 1, 1],
              'extras': {},
              'fix_com': True,
              'fix_orientation': True,
              'fix_symmetry': 'c1',
              'fragment_charges': [0.0, 0.0],
              'fragment_multiplicities': [1, 1],
              'fragments': [[0, 1, 2, 3, 4, 5, 6, 7, 8], [9, 10, 11, 12, 13, 14, 15, 16, 17]],
              'geometry': [-3.0316592771801116, 1.709701366116088, 1.5412266128531464, -3.0487499602587524,
                           -0.49631389013799304, -0.25926853468668853, -5.486264225785919, -1.0577798679033956,
                           -1.182471556565605, -6.5863493924599394, -1.3012370640983786, 0.24027489739971195,
                           -1.0998886351569725, 2.1672097302678046, 2.1036676892992854, -4.125986448349861,
                           1.2870735667880722, 3.245513913619798, -3.861687462717205, 3.3750149552712974,
                           0.6482970035040643, -2.1991196456222855, -2.1631638266331996, 0.650577902937492,
                           -1.8820784038281002, -0.07191919688267402, -1.9090693620780144, 3.689391683228587,
                           -2.175469723162181, 0.8703133670796028, 4.844902517162285, 0.10402753348032796,
                           -0.3662629381839853, 2.8873956950365356, 1.84734334791606, -0.8592641384240509,
                           3.577841150042812, 3.309314847067505, -1.6777045233598362, 5.128329310636827,
                           -3.5843134620225046, 1.3117533899865514, 2.2874681214396904, -3.0386814994623133,
                           -0.37389554200470954, 2.7408795593514137, -1.6395755193264736, 2.6236844142288955,
                           5.805008110819142, -0.44776682597498146, -2.1237252423948942, 6.2832222041275,
                           0.9398628474009527, 0.8784372996929459],
              'mass_numbers': [12, 12, 16, 1, 1, 1, 1, 1, 1, 12, 12, 16, 1, 1, 1, 1, 1, 1],
              'masses': [12.0, 12.0, 15.99491461957, 1.00782503223, 1.00782503223, 1.00782503223, 1.00782503223,
                         1.00782503223, 1.00782503223, 12.0, 12.0, 15.99491461957, 1.00782503223, 1.00782503223,
                         1.00782503223, 1.00782503223, 1.00782503223, 1.00782503223],
              'molecular_charge': 0.0,
              'molecular_multiplicity': 1,
              'name': 'dimer',
              'provenance': {'creator': 'QCElemental',
                             'routine': 'qcelemental.molparse.from_string',
                             'version': '0.29.0'},
              'real': [True, True, True, True, True, True, True, True, True, False, False, False, False, False, False,
                       False, False, False],
              'schema_name': 'qcschema_molecule',
              'schema_version': 2,
              'symbols': ['C', 'C', 'O', 'H', 'H', 'H', 'H', 'H', 'H', 'C', 'C', 'O', 'H', 'H', 'H', 'H', 'H', 'H'],
              'validated': True},
 'protocols': {'stdout': True},
 'provenance': {'creator': 'QCElemental', 'routine': 'qcelemental.models.results', 'version': '0.29.0'},
 'schema_name': 'qcschema_input',
 'schema_version': 1}
--------------------------------------------------------------------------

Scratch directory: /tmp/
   => Libint2 <=

    Primary   basis highest AM E, G, H:  6, 6, 3
    Auxiliary basis highest AM E, G, H:  7, 7, 4
    Onebody   basis highest AM E, G, H:  -, -, -
    Solid Harmonics ordering:            Gaussian

*** tstart() called on Moses-MBP.lan
*** at Thu Feb 27 17:46:19 2025

   => Loading Basis Set <=

    Name: AUG-CC-PVTZ
    Role: ORBITAL
    Keyword: BASIS
    atoms 1-2, 10-11 entry C          line   239 file /Users/moseschung/miniconda3/envs/psi4/share/psi4/basis/aug-cc-pvtz.gbs 
    atoms 3, 12      entry O          line   331 file /Users/moseschung/miniconda3/envs/psi4/share/psi4/basis/aug-cc-pvtz.gbs 
    atoms 4-9, 13-18 entry H          line    40 file /Users/moseschung/miniconda3/envs/psi4/share/psi4/basis/aug-cc-pvtz.gbs 


         ---------------------------------------------------------
                                   SCF
               by Justin Turney, Rob Parrish, Andy Simmonett
                          and Daniel G. A. Smith
                              RHF Reference
                       10 Threads,   9536 MiB Core
         ---------------------------------------------------------

  ==> Geometry <==

    Molecular point group: c1
    Full point group: C1

    Geometry (in Bohr), charge = 0, multiplicity = 1:

       Center              X                  Y                   Z               Mass       
    ------------   -----------------  -----------------  -----------------  -----------------
         C           -3.031659277180     1.709701366116     1.541226612853    12.000000000000
         C           -3.048749960259    -0.496313890138    -0.259268534687    12.000000000000
         O           -5.486264225786    -1.057779867903    -1.182471556566    15.994914619570
         H           -6.586349392460    -1.301237064098     0.240274897400     1.007825032230
         H           -1.099888635157     2.167209730268     2.103667689299     1.007825032230
         H           -4.125986448350     1.287073566788     3.245513913620     1.007825032230
         H           -3.861687462717     3.375014955271     0.648297003504     1.007825032230
         H           -2.199119645622    -2.163163826633     0.650577902937     1.007825032230
         H           -1.882078403828    -0.071919196883    -1.909069362078     1.007825032230
      Gh(C)           3.689391683229    -2.175469723162     0.870313367080    12.000000000000
      Gh(C)           4.844902517162     0.104027533480    -0.366262938184    12.000000000000
      Gh(O)           2.887395695037     1.847343347916    -0.859264138424    15.994914619570
      Gh(H)           3.577841150043     3.309314847068    -1.677704523360     1.007825032230
      Gh(H)           5.128329310637    -3.584313462023     1.311753389987     1.007825032230
      Gh(H)           2.287468121440    -3.038681499462    -0.373895542005     1.007825032230
      Gh(H)           2.740879559351    -1.639575519326     2.623684414229     1.007825032230
      Gh(H)           5.805008110819    -0.447766825975    -2.123725242395     1.007825032230
      Gh(H)           6.283222204128     0.939862847401     0.878437299693     1.007825032230

  Running in c1 symmetry.

  Rotational constants: A =      0.17755  B =      0.03752  C =      0.03495 [cm^-1]
  Rotational constants: A =   5322.68249  B =   1124.90295  C =   1047.87431 [MHz]
  Nuclear repulsion =   82.144372422175252

  Charge       = 0
  Multiplicity = 1
  Electrons    = 26
  Nalpha       = 13
  Nbeta        = 13

  ==> Algorithm <==

  SCF Algorithm Type is DF.
  DIIS enabled.
  MOM disabled.
  Fractional occupation disabled.
  Guess Type is SAD.
  Energy threshold   = 1.00e-08
  Density threshold  = 1.00e-08
  Integral threshold = 1.00e-12

  ==> Primary Basis <==

  Basis Set: AUG-CC-PVTZ
    Blend: AUG-CC-PVTZ
    Number of shells: 192
    Number of basis functions: 552
    Number of Cartesian functions: 630
    Spherical Harmonics?: true
    Max angular momentum: 3

   => Loading Basis Set <=

    Name: (AUG-CC-PVTZ AUX)
    Role: JKFIT
    Keyword: DF_BASIS_SCF
    atoms 1-2, 10-11 entry C          line   162 file /Users/moseschung/miniconda3/envs/psi4/share/psi4/basis/aug-cc-pvtz-jkfit.gbs 
    atoms 3, 12      entry O          line   286 file /Users/moseschung/miniconda3/envs/psi4/share/psi4/basis/aug-cc-pvtz-jkfit.gbs 
    atoms 4-9, 13-18 entry H          line    70 file /Users/moseschung/miniconda3/envs/psi4/share/psi4/basis/aug-cc-pvtz-jkfit.gbs 

  ==> Integral Setup <==

  DFHelper Memory: AOs need 2.594 GiB; user supplied 6.985 GiB. 
  Using in-core AOs.

  ==> MemDFJK: Density-Fitted J/K Matrices <==

    J tasked:                   Yes
    K tasked:                   Yes
    wK tasked:                   No
    OpenMP threads:              10
    Memory [MiB]:              7152
    Algorithm:                 Core
    Schwarz Cutoff:           1E-12
    Mask sparsity (%):       6.3609
    Fitting Condition:        1E-10

   => Auxiliary Basis Set <=

  Basis Set: (AUG-CC-PVTZ AUX)
    Blend: AUG-CC-PVTZ-JKFIT
    Number of shells: 348
    Number of basis functions: 1176
    Number of Cartesian functions: 1446
    Spherical Harmonics?: true
    Max angular momentum: 4

  Minimum eigenvalue in the overlap matrix is 8.8681218606E-06.
  Reciprocal condition number of the overlap matrix is 4.8153038358E-07.
    Using symmetric orthogonalization.

  ==> Pre-Iterations <==

  SCF Guess: Superposition of Atomic Densities via on-the-fly atomic UHF (no occupation information).

   -------------------------
    Irrep   Nso     Nmo    
   -------------------------
     A        552     552 
   -------------------------
    Total     552     552
   -------------------------

  ==> Iterations <==

                           Total Energy        Delta E     RMS |[F,P]|

   @DF-RHF iter SAD:  -153.45791522292123   -1.53458e+02   0.00000e+00 
   @DF-RHF iter   1:  -154.00368149442639   -5.45766e-01   9.36580e-04 DIIS/ADIIS
   @DF-RHF iter   2:  -154.11547096966990   -1.11789e-01   4.93702e-04 DIIS/ADIIS
   @DF-RHF iter   3:  -154.14322371102259   -2.77527e-02   8.37579e-05 DIIS
   @DF-RHF iter   4:  -154.14479770847871   -1.57400e-03   3.20434e-05 DIIS
   @DF-RHF iter   5:  -154.14498326640884   -1.85558e-04   6.21925e-06 DIIS
   @DF-RHF iter   6:  -154.14499354371424   -1.02773e-05   1.42707e-06 DIIS
   @DF-RHF iter   7:  -154.14499428138248   -7.37668e-07   4.05725e-07 DIIS
   @DF-RHF iter   8:  -154.14499433657244   -5.51900e-08   1.28627e-07 DIIS
   @DF-RHF iter   9:  -154.14499434274600   -6.17356e-09   3.30049e-08 DIIS
   @DF-RHF iter  10:  -154.14499434317673   -4.30731e-10   6.28425e-09 DIIS
  Energy and wave function converged.


  ==> Post-Iterations <==

    Orbital Energies [Eh]
    ---------------------

    Doubly Occupied:                                                      

       1A    -20.555730     2A    -11.273392     3A    -11.218825  
       4A     -1.362004     5A     -1.015355     6A     -0.848180  
       7A     -0.685817     8A     -0.626780     9A     -0.613627  
      10A     -0.543053    11A     -0.527722    12A     -0.481418  
      13A     -0.442463  

    Virtual:                                                              

      14A      0.020842    15A      0.031820    16A      0.034292  
      17A      0.038460    18A      0.050531    19A      0.052215  
      20A      0.053048    21A      0.064452    22A      0.065469  
      23A      0.074987    24A      0.076869    25A      0.082656  
      26A      0.091935    27A      0.109712    28A      0.116788  
      29A      0.119086    30A      0.121635    31A      0.124323  
      32A      0.130918    33A      0.133922    34A      0.143840  
      35A      0.148370    36A      0.150369    37A      0.156101  
      38A      0.159116    39A      0.172831    40A      0.179309  
      41A      0.184238    42A      0.196778    43A      0.200876  
      44A      0.211475    45A      0.220091    46A      0.226344  
      47A      0.233498    48A      0.238777    49A      0.242135  
      50A      0.248990    51A      0.270185    52A      0.275651  
      53A      0.281878    54A      0.286502    55A      0.287604  
      56A      0.298283    57A      0.308948    58A      0.309880  
      59A      0.320398    60A      0.324565    61A      0.332576  
      62A      0.334789    63A      0.340432    64A      0.343483  
      65A      0.351740    66A      0.354367    67A      0.359593  
      68A      0.365808    69A      0.370249    70A      0.377067  
      71A      0.382033    72A      0.384063    73A      0.387489  
      74A      0.394563    75A      0.402513    76A      0.406316  
      77A      0.412867    78A      0.416286    79A      0.422092  
      80A      0.426892    81A      0.434152    82A      0.437641  
      83A      0.442550    84A      0.452138    85A      0.456458  
      86A      0.461007    87A      0.472702    88A      0.473918  
      89A      0.476415    90A      0.487108    91A      0.494734  
      92A      0.498341    93A      0.502857    94A      0.507432  
      95A      0.510934    96A      0.520519    97A      0.525021  
      98A      0.536381    99A      0.539650   100A      0.546220  
     101A      0.553226   102A      0.557074   103A      0.562383  
     104A      0.580291   105A      0.582507   106A      0.590542  
     107A      0.597354   108A      0.601406   109A      0.608428  
     110A      0.617374   111A      0.629107   112A      0.637347  
     113A      0.641193   114A      0.647844   115A      0.659144  
     116A      0.661188   117A      0.670525   118A      0.681684  
     119A      0.689385   120A      0.691535   121A      0.697825  
     122A      0.714277   123A      0.732692   124A      0.741238  
     125A      0.749834   126A      0.757134   127A      0.767157  
     128A      0.774044   129A      0.775642   130A      0.799632  
     131A      0.809193   132A      0.819595   133A      0.834304  
     134A      0.840850   135A      0.849783   136A      0.852667  
     137A      0.858677   138A      0.875523   139A      0.878518  
     140A      0.889295   141A      0.898148   142A      0.900566  
     143A      0.918343   144A      0.928605   145A      0.934978  
     146A      0.944907   147A      0.948489   148A      0.956630  
     149A      0.961122   150A      0.976372   151A      0.983686  
     152A      0.989753   153A      0.997936   154A      0.999325  
     155A      1.005722   156A      1.016458   157A      1.021994  
     158A      1.029939   159A      1.036503   160A      1.047363  
     161A      1.052950   162A      1.060001   163A      1.069096  
     164A      1.073433   165A      1.081847   166A      1.085970  
     167A      1.092340   168A      1.098844   169A      1.099671  
     170A      1.111725   171A      1.114574   172A      1.127596  
     173A      1.133877   174A      1.135515   175A      1.139652  
     176A      1.144900   177A      1.149891   178A      1.161210  
     179A      1.171751   180A      1.182771   181A      1.187973  
     182A      1.190996   183A      1.200755   184A      1.201561  
     185A      1.212849   186A      1.222471   187A      1.230411  
     188A      1.237644   189A      1.239349   190A      1.245444  
     191A      1.248084   192A      1.273943   193A      1.274890  
     194A      1.285907   195A      1.298025   196A      1.301340  
     197A      1.304816   198A      1.313811   199A      1.318868  
     200A      1.334498   201A      1.350430   202A      1.358119  
     203A      1.362812   204A      1.366085   205A      1.376457  
     206A      1.379877   207A      1.384295   208A      1.398152  
     209A      1.413201   210A      1.421184   211A      1.424873  
     212A      1.436076   213A      1.452615   214A      1.459749  
     215A      1.464204   216A      1.479452   217A      1.486086  
     218A      1.496889   219A      1.510926   220A      1.516567  
     221A      1.524360   222A      1.537876   223A      1.542996  
     224A      1.547480   225A      1.563530   226A      1.576893  
     227A      1.586049   228A      1.587736   229A      1.601334  
     230A      1.611703   231A      1.619057   232A      1.631044  
     233A      1.641722   234A      1.652375   235A      1.661604  
     236A      1.668393   237A      1.690332   238A      1.704000  
     239A      1.717168   240A      1.723360   241A      1.744162  
     242A      1.753426   243A      1.765702   244A      1.772512  
     245A      1.777066   246A      1.789024   247A      1.793114  
     248A      1.805643   249A      1.816938   250A      1.837335  
     251A      1.839017   252A      1.851463   253A      1.859203  
     254A      1.873831   255A      1.885451   256A      1.902739  
     257A      1.911113   258A      1.917429   259A      1.934309  
     260A      1.943669   261A      1.953709   262A      1.968320  
     263A      1.977441   264A      1.982586   265A      1.986928  
     266A      2.022333   267A      2.026930   268A      2.033895  
     269A      2.041162   270A      2.048240   271A      2.062386  
     272A      2.072717   273A      2.093451   274A      2.100813  
     275A      2.109489   276A      2.130565   277A      2.141774  
     278A      2.147545   279A      2.162081   280A      2.188706  
     281A      2.199989   282A      2.203878   283A      2.209995  
     284A      2.221731   285A      2.230644   286A      2.248336  
     287A      2.263800   288A      2.276509   289A      2.287808  
     290A      2.299337   291A      2.312145   292A      2.330299  
     293A      2.345854   294A      2.353305   295A      2.382900  
     296A      2.403867   297A      2.433855   298A      2.445361  
     299A      2.458879   300A      2.475874   301A      2.478275  
     302A      2.500592   303A      2.529066   304A      2.557796  
     305A      2.572952   306A      2.582747   307A      2.615982  
     308A      2.636527   309A      2.664972   310A      2.672852  
     311A      2.697320   312A      2.714595   313A      2.729779  
     314A      2.733549   315A      2.751231   316A      2.768230  
     317A      2.791846   318A      2.810434   319A      2.827010  
     320A      2.842485   321A      2.855112   322A      2.888289  
     323A      2.897984   324A      2.922283   325A      2.966409  
     326A      2.986245   327A      3.012223   328A      3.039511  
     329A      3.048891   330A      3.062250   331A      3.078836  
     332A      3.125446   333A      3.179896   334A      3.184386  
     335A      3.215990   336A      3.221982   337A      3.265842  
     338A      3.324864   339A      3.349398   340A      3.372413  
     341A      3.428301   342A      3.473049   343A      3.481730  
     344A      3.491682   345A      3.521680   346A      3.549216  
     347A      3.563762   348A      3.577486   349A      3.623226  
     350A      3.647250   351A      3.659138   352A      3.661853  
     353A      3.697270   354A      3.702803   355A      3.710717  
     356A      3.774311   357A      3.793264   358A      3.815931  
     359A      3.826372   360A      3.831867   361A      3.852665  
     362A      3.890490   363A      3.911936   364A      3.928450  
     365A      3.959341   366A      3.980359   367A      3.987428  
     368A      4.010036   369A      4.047101   370A      4.060834  
     371A      4.071635   372A      4.112337   373A      4.120338  
     374A      4.128515   375A      4.138990   376A      4.149097  
     377A      4.154937   378A      4.171905   379A      4.192892  
     380A      4.214935   381A      4.222646   382A      4.231467  
     383A      4.253340   384A      4.257994   385A      4.281404  
     386A      4.292315   387A      4.331550   388A      4.345813  
     389A      4.369242   390A      4.383705   391A      4.396553  
     392A      4.409211   393A      4.423756   394A      4.448980  
     395A      4.490405   396A      4.495897   397A      4.502331  
     398A      4.529360   399A      4.548965   400A      4.559712  
     401A      4.574268   402A      4.579743   403A      4.599356  
     404A      4.626189   405A      4.630789   406A      4.647474  
     407A      4.660759   408A      4.680794   409A      4.699901  
     410A      4.706648   411A      4.728266   412A      4.741112  
     413A      4.756007   414A      4.767630   415A      4.776246  
     416A      4.799131   417A      4.819255   418A      4.830428  
     419A      4.864261   420A      4.875399   421A      4.881336  
     422A      4.902755   423A      4.910872   424A      4.916020  
     425A      4.927356   426A      4.938704   427A      4.957580  
     428A      4.979270   429A      5.000228   430A      5.012777  
     431A      5.032138   432A      5.034276   433A      5.050829  
     434A      5.064895   435A      5.072988   436A      5.105147  
     437A      5.125858   438A      5.146213   439A      5.150664  
     440A      5.200201   441A      5.211499   442A      5.215844  
     443A      5.254146   444A      5.275898   445A      5.307173  
     446A      5.317013   447A      5.335441   448A      5.342580  
     449A      5.372874   450A      5.375975   451A      5.414280  
     452A      5.421614   453A      5.434373   454A      5.447404  
     455A      5.474075   456A      5.499278   457A      5.527455  
     458A      5.547864   459A      5.559539   460A      5.565476  
     461A      5.575689   462A      5.581755   463A      5.590402  
     464A      5.595154   465A      5.623612   466A      5.645877  
     467A      5.673943   468A      5.679199   469A      5.698499  
     470A      5.735637   471A      5.746469   472A      5.771026  
     473A      5.811747   474A      5.831592   475A      5.861718  
     476A      5.878513   477A      5.922451   478A      5.973510  
     479A      6.008316   480A      6.048455   481A      6.059256  
     482A      6.100931   483A      6.121870   484A      6.135620  
     485A      6.174986   486A      6.186813   487A      6.214949  
     488A      6.237244   489A      6.250832   490A      6.257319  
     491A      6.301300   492A      6.310403   493A      6.432741  
     494A      6.457780   495A      6.543404   496A      6.702455  
     497A      6.728316   498A      6.806949   499A      6.840790  
     500A      6.850784   501A      6.875369   502A      6.944168  
     503A      6.957145   504A      6.976280   505A      7.036258  
     506A      7.048665   507A      7.131560   508A      7.199884  
     509A      7.244473   510A      7.302022   511A      7.353936  
     512A      7.391144   513A      7.466810   514A      7.534047  
     515A      7.653238   516A      7.738532   517A      7.852015  
     518A      7.861445   519A      7.872535   520A      7.901689  
     521A      7.911242   522A      7.941090   523A      7.965099  
     524A      8.050486   525A      8.101670   526A      8.140147  
     527A      8.194806   528A      8.255419   529A      8.347522  
     530A      8.368848   531A      8.414130   532A      8.622493  
     533A      8.630328   534A      8.894261   535A      9.054297  
     536A      9.954014   537A     10.112267   538A     10.363709  
     539A     10.400420   540A     10.423518   541A     10.808708  
     542A     11.131279   543A     11.892951   544A     12.345101  
     545A     13.288489   546A     14.154477   547A     16.363016  
     548A     17.850521   549A     18.637892   550A     53.224207  
     551A     54.245059   552A     65.980548  

    Final Occupation by Irrep:
              A 
    DOCC [    13 ]
    NA   [    13 ]
    NB   [    13 ]

  @DF-RHF Final Energy:  -154.14499434317673

   => Energetics <=

    Nuclear Repulsion Energy =             82.1443724221752518
    One-Electron Energy =                -372.1899981201053720
    Two-Electron Energy =                 135.9006313547533864
    Total Energy =                       -154.1449943431767338

Computation Completed


Properties will be evaluated at   0.000000,   0.000000,   0.000000 [a0]

Properties computed using the SCF density matrix


 Multipole Moments:

 ------------------------------------------------------------------------------------
     Multipole            Electronic (a.u.)      Nuclear  (a.u.)        Total (a.u.)
 ------------------------------------------------------------------------------------

 L = 1.  Multiply by 2.5417464519 to convert [e a0] to [Debye]
 Dipole X            :        100.3429114         -100.1276792            0.2152322
 Dipole Y            :         -2.0146838            2.1110641            0.0963803
 Dipole Z            :         -2.5364406            3.2112381            0.6747975
 Magnitude           :                                                    0.7148186

 ------------------------------------------------------------------------------------

*** tstop() called on Moses-MBP.lan at Thu Feb 27 17:46:28 2025
Module time:
	user time   =      70.43 seconds =       1.17 minutes
	system time =       5.63 seconds =       0.09 minutes
	total time  =          9 seconds =       0.15 minutes
Total time:
	user time   =     162.72 seconds =       2.71 minutes
	system time =      14.10 seconds =       0.23 minutes
	total time  =         22 seconds =       0.37 minutes

*** tstart() called on Moses-MBP.lan
*** at Thu Feb 27 17:46:28 2025


  //>>>>>>>>>>>>>>>>>>>>>>>>>>>>>>>>>>>//
  //               DFMP2               //
  //<<<<<<<<<<<<<<<<<<<<<<<<<<<<<<<<<<<//

   => Loading Basis Set <=

    Name: (AUG-CC-PVTZ AUX)
    Role: RIFIT
    Keyword: DF_BASIS_MP2
    atoms 1-2, 10-11 entry C          line   148 file /Users/moseschung/miniconda3/envs/psi4/share/psi4/basis/aug-cc-pvtz-ri.gbs 
    atoms 3, 12      entry O          line   264 file /Users/moseschung/miniconda3/envs/psi4/share/psi4/basis/aug-cc-pvtz-ri.gbs 
    atoms 4-9, 13-18 entry H          line    30 file /Users/moseschung/miniconda3/envs/psi4/share/psi4/basis/aug-cc-pvtz-ri.gbs 

	 --------------------------------------------------------
	                          DF-MP2                         
	      2nd-Order Density-Fitted Moller-Plesset Theory     
	              RMP2 Wavefunction,  10 Threads             
	                                                         
	        Rob Parrish, Justin Turney, Andy Simmonett,      
	           Ed Hohenstein, and C. David Sherrill          
	 --------------------------------------------------------

   => Auxiliary Basis Set <=

  Basis Set: (AUG-CC-PVTZ AUX)
    Blend: AUG-CC-PVTZ-RI
    Number of shells: 336
    Number of basis functions: 1188
    Number of Cartesian functions: 1476
    Spherical Harmonics?: true
    Max angular momentum: 4

	 --------------------------------------------------------
	                 NBF =   552, NAUX =  1188
	 --------------------------------------------------------
	   CLASS    FOCC     OCC    AOCC    AVIR     VIR    FVIR
	   PAIRS       0      13      13     539     539       0
	 --------------------------------------------------------

	-----------------------------------------------------------
	 ==================> DF-MP2 Energies <==================== 
	-----------------------------------------------------------
	 Reference Energy          =    -154.1449943431767338 [Eh]
	 Singles Energy            =      -0.0000000000000000 [Eh]
	 Same-Spin Energy          =      -0.1482076785288617 [Eh]
	 Opposite-Spin Energy      =      -0.5182744467479738 [Eh]
	 Correlation Energy        =      -0.6664821252768356 [Eh]
	 Total Energy              =    -154.8114764684535771 [Eh]
	-----------------------------------------------------------
	 ================> DF-SCS-MP2 Energies <================== 
	-----------------------------------------------------------
	 SCS Same-Spin Scale       =       0.3333333333333333 [-]
	 SCS Opposite-Spin Scale   =       1.2000000000000000 [-]
	 SCS Same-Spin Energy      =      -0.0494025595096206 [Eh]
	 SCS Opposite-Spin Energy  =      -0.6219293360975686 [Eh]
	 SCS Correlation Energy    =      -0.6713318956071892 [Eh]
	 SCS Total Energy          =    -154.8163262387839154 [Eh]
	-----------------------------------------------------------


*** tstop() called on Moses-MBP.lan at Thu Feb 27 17:46:31 2025
Module time:
	user time   =      20.42 seconds =       0.34 minutes
	system time =       1.83 seconds =       0.03 minutes
	total time  =          3 seconds =       0.05 minutes
Total time:
	user time   =     183.15 seconds =       3.05 minutes
	system time =      15.94 seconds =       0.27 minutes
	total time  =         25 seconds =       0.42 minutes

    Psi4 stopped on: Thursday, 27 February 2025 05:46PM
    Psi4 wall time for execution: 0:00:12.58


    -----------------------------------------------------------------------
          Psi4: An Open-Source Ab Initio Electronic Structure Package
                               Psi4 1.9.1 release

                         Git: Rev {} zzzzzzz 


    D. G. A. Smith, L. A. Burns, A. C. Simmonett, R. M. Parrish,
    M. C. Schieber, R. Galvelis, P. Kraus, H. Kruse, R. Di Remigio,
    A. Alenaizan, A. M. James, S. Lehtola, J. P. Misiewicz, M. Scheurer,
    R. A. Shaw, J. B. Schriber, Y. Xie, Z. L. Glick, D. A. Sirianni,
    J. S. O'Brien, J. M. Waldrop, A. Kumar, E. G. Hohenstein,
    B. P. Pritchard, B. R. Brooks, H. F. Schaefer III, A. Yu. Sokolov,
    K. Patkowski, A. E. DePrince III, U. Bozkaya, R. A. King,
    F. A. Evangelista, J. M. Turney, T. D. Crawford, C. D. Sherrill,
    J. Chem. Phys. 152(18) 184108 (2020). https://doi.org/10.1063/5.0006002

                            Additional Code Authors
    E. T. Seidl, C. L. Janssen, E. F. Valeev, M. L. Leininger,
    J. F. Gonthier, R. M. Richard, H. R. McAlexander, M. Saitow, X. Wang,
    P. Verma, M. H. Lechner, A. Jiang, S. Behnle, A. G. Heide,
    M. F. Herbst, and D. L. Poole

             Previous Authors, Complete List of Code Contributors,
                       and Citations for Specific Modules
    https://github.com/psi4/psi4/blob/master/codemeta.json
    https://github.com/psi4/psi4/graphs/contributors
    http://psicode.org/psi4manual/master/introduction.html#citing-psifour

    -----------------------------------------------------------------------


    Psi4 started on: Thursday, 27 February 2025 05:46PM

    Process ID: 32138
    Host:       Moses-MBP.lan
    PSIDATADIR: /Users/moseschung/miniconda3/envs/psi4/share/psi4
    Memory:     9.3 GiB
    Threads:    10
    
  ==> Input QCSchema <==

--------------------------------------------------------------------------
{'driver': 'energy',
 'extras': {'psiapi': True, 'wfn_qcvars_only': True},
 'id': None,
 'keywords': {'SCF_TYPE': 'DF', 'function_kwargs': {}},
 'model': {'basis': 'aug-cc-pvtz', 'method': 'mp2'},
 'molecule': {'atom_labels': ['', '', '', '', '', '', '', '', '', '', '', '', '', '', '', '', '', ''],
              'atomic_numbers': [6, 6, 8, 1, 1, 1, 1, 1, 1, 6, 6, 8, 1, 1, 1, 1, 1, 1],
              'extras': {},
              'fix_com': True,
              'fix_orientation': True,
              'fix_symmetry': 'c1',
              'fragment_charges': [0.0, 0.0],
              'fragment_multiplicities': [1, 1],
              'fragments': [[0, 1, 2, 3, 4, 5, 6, 7, 8], [9, 10, 11, 12, 13, 14, 15, 16, 17]],
              'geometry': [-3.0316592771801116, 1.709701366116088, 1.5412266128531464, -3.0487499602587524,
                           -0.49631389013799304, -0.25926853468668853, -5.486264225785919, -1.0577798679033956,
                           -1.182471556565605, -6.5863493924599394, -1.3012370640983786, 0.24027489739971195,
                           -1.0998886351569725, 2.1672097302678046, 2.1036676892992854, -4.125986448349861,
                           1.2870735667880722, 3.245513913619798, -3.861687462717205, 3.3750149552712974,
                           0.6482970035040643, -2.1991196456222855, -2.1631638266331996, 0.650577902937492,
                           -1.8820784038281002, -0.07191919688267402, -1.9090693620780144, 3.689391683228587,
                           -2.175469723162181, 0.8703133670796028, 4.844902517162285, 0.10402753348032796,
                           -0.3662629381839853, 2.8873956950365356, 1.84734334791606, -0.8592641384240509,
                           3.577841150042812, 3.309314847067505, -1.6777045233598362, 5.128329310636827,
                           -3.5843134620225046, 1.3117533899865514, 2.2874681214396904, -3.0386814994623133,
                           -0.37389554200470954, 2.7408795593514137, -1.6395755193264736, 2.6236844142288955,
                           5.805008110819142, -0.44776682597498146, -2.1237252423948942, 6.2832222041275,
                           0.9398628474009527, 0.8784372996929459],
              'mass_numbers': [12, 12, 16, 1, 1, 1, 1, 1, 1, 12, 12, 16, 1, 1, 1, 1, 1, 1],
              'masses': [12.0, 12.0, 15.99491461957, 1.00782503223, 1.00782503223, 1.00782503223, 1.00782503223,
                         1.00782503223, 1.00782503223, 12.0, 12.0, 15.99491461957, 1.00782503223, 1.00782503223,
                         1.00782503223, 1.00782503223, 1.00782503223, 1.00782503223],
              'molecular_charge': 0.0,
              'molecular_multiplicity': 1,
              'name': 'dimer',
              'provenance': {'creator': 'QCElemental',
                             'routine': 'qcelemental.molparse.from_string',
                             'version': '0.29.0'},
              'real': [True, True, True, True, True, True, True, True, True, True, True, True, True, True, True, True,
                       True, True],
              'schema_name': 'qcschema_molecule',
              'schema_version': 2,
              'symbols': ['C', 'C', 'O', 'H', 'H', 'H', 'H', 'H', 'H', 'C', 'C', 'O', 'H', 'H', 'H', 'H', 'H', 'H'],
              'validated': True},
 'protocols': {'stdout': True},
 'provenance': {'creator': 'QCElemental', 'routine': 'qcelemental.models.results', 'version': '0.29.0'},
 'schema_name': 'qcschema_input',
 'schema_version': 1}
--------------------------------------------------------------------------

Scratch directory: /tmp/
   => Libint2 <=

    Primary   basis highest AM E, G, H:  6, 6, 3
    Auxiliary basis highest AM E, G, H:  7, 7, 4
    Onebody   basis highest AM E, G, H:  -, -, -
    Solid Harmonics ordering:            Gaussian

*** tstart() called on Moses-MBP.lan
*** at Thu Feb 27 17:46:31 2025

   => Loading Basis Set <=

    Name: AUG-CC-PVTZ
    Role: ORBITAL
    Keyword: BASIS
    atoms 1-2, 10-11 entry C          line   239 file /Users/moseschung/miniconda3/envs/psi4/share/psi4/basis/aug-cc-pvtz.gbs 
    atoms 3, 12      entry O          line   331 file /Users/moseschung/miniconda3/envs/psi4/share/psi4/basis/aug-cc-pvtz.gbs 
    atoms 4-9, 13-18 entry H          line    40 file /Users/moseschung/miniconda3/envs/psi4/share/psi4/basis/aug-cc-pvtz.gbs 


         ---------------------------------------------------------
                                   SCF
               by Justin Turney, Rob Parrish, Andy Simmonett
                          and Daniel G. A. Smith
                              RHF Reference
                       10 Threads,   9536 MiB Core
         ---------------------------------------------------------

  ==> Geometry <==

    Molecular point group: c1
    Full point group: C1

    Geometry (in Bohr), charge = 0, multiplicity = 1:

       Center              X                  Y                   Z               Mass       
    ------------   -----------------  -----------------  -----------------  -----------------
         C           -3.031659277180     1.709701366116     1.541226612853    12.000000000000
         C           -3.048749960259    -0.496313890138    -0.259268534687    12.000000000000
         O           -5.486264225786    -1.057779867903    -1.182471556566    15.994914619570
         H           -6.586349392460    -1.301237064098     0.240274897400     1.007825032230
         H           -1.099888635157     2.167209730268     2.103667689299     1.007825032230
         H           -4.125986448350     1.287073566788     3.245513913620     1.007825032230
         H           -3.861687462717     3.375014955271     0.648297003504     1.007825032230
         H           -2.199119645622    -2.163163826633     0.650577902937     1.007825032230
         H           -1.882078403828    -0.071919196883    -1.909069362078     1.007825032230
         C            3.689391683229    -2.175469723162     0.870313367080    12.000000000000
         C            4.844902517162     0.104027533480    -0.366262938184    12.000000000000
         O            2.887395695037     1.847343347916    -0.859264138424    15.994914619570
         H            3.577841150043     3.309314847068    -1.677704523360     1.007825032230
         H            5.128329310637    -3.584313462023     1.311753389987     1.007825032230
         H            2.287468121440    -3.038681499462    -0.373895542005     1.007825032230
         H            2.740879559351    -1.639575519326     2.623684414229     1.007825032230
         H            5.805008110819    -0.447766825975    -2.123725242395     1.007825032230
         H            6.283222204128     0.939862847401     0.878437299693     1.007825032230

  Running in c1 symmetry.

  Rotational constants: A =      0.17755  B =      0.03752  C =      0.03495 [cm^-1]
  Rotational constants: A =   5322.68249  B =   1124.90295  C =   1047.87431 [MHz]
  Nuclear repulsion =  249.458124735975332

  Charge       = 0
  Multiplicity = 1
  Electrons    = 52
  Nalpha       = 26
  Nbeta        = 26

  ==> Algorithm <==

  SCF Algorithm Type is DF.
  DIIS enabled.
  MOM disabled.
  Fractional occupation disabled.
  Guess Type is SAD.
  Energy threshold   = 1.00e-08
  Density threshold  = 1.00e-08
  Integral threshold = 1.00e-12

  ==> Primary Basis <==

  Basis Set: AUG-CC-PVTZ
    Blend: AUG-CC-PVTZ
    Number of shells: 192
    Number of basis functions: 552
    Number of Cartesian functions: 630
    Spherical Harmonics?: true
    Max angular momentum: 3

   => Loading Basis Set <=

    Name: (AUG-CC-PVTZ AUX)
    Role: JKFIT
    Keyword: DF_BASIS_SCF
    atoms 1-2, 10-11 entry C          line   162 file /Users/moseschung/miniconda3/envs/psi4/share/psi4/basis/aug-cc-pvtz-jkfit.gbs 
    atoms 3, 12      entry O          line   286 file /Users/moseschung/miniconda3/envs/psi4/share/psi4/basis/aug-cc-pvtz-jkfit.gbs 
    atoms 4-9, 13-18 entry H          line    70 file /Users/moseschung/miniconda3/envs/psi4/share/psi4/basis/aug-cc-pvtz-jkfit.gbs 

  ==> Integral Setup <==

  DFHelper Memory: AOs need 2.594 GiB; user supplied 6.985 GiB. 
  Using in-core AOs.

  ==> MemDFJK: Density-Fitted J/K Matrices <==

    J tasked:                   Yes
    K tasked:                   Yes
    wK tasked:                   No
    OpenMP threads:              10
    Memory [MiB]:              7152
    Algorithm:                 Core
    Schwarz Cutoff:           1E-12
    Mask sparsity (%):       6.3609
    Fitting Condition:        1E-10

   => Auxiliary Basis Set <=

  Basis Set: (AUG-CC-PVTZ AUX)
    Blend: AUG-CC-PVTZ-JKFIT
    Number of shells: 348
    Number of basis functions: 1176
    Number of Cartesian functions: 1446
    Spherical Harmonics?: true
    Max angular momentum: 4

  Minimum eigenvalue in the overlap matrix is 8.8681218606E-06.
  Reciprocal condition number of the overlap matrix is 4.8153038358E-07.
    Using symmetric orthogonalization.

  ==> Pre-Iterations <==

  SCF Guess: Superposition of Atomic Densities via on-the-fly atomic UHF (no occupation information).

   -------------------------
    Irrep   Nso     Nmo    
   -------------------------
     A        552     552 
   -------------------------
    Total     552     552
   -------------------------

  ==> Iterations <==

                           Total Energy        Delta E     RMS |[F,P]|

   @DF-RHF iter SAD:  -307.02551966245358   -3.07026e+02   0.00000e+00 
   @DF-RHF iter   1:  -308.00281024290712   -9.77291e-01   1.33231e-03 DIIS/ADIIS
   @DF-RHF iter   2:  -308.22679953265856   -2.23989e-01   7.12844e-04 DIIS/ADIIS
   @DF-RHF iter   3:  -308.28563799674214   -5.88385e-02   1.19245e-04 DIIS/ADIIS
   @DF-RHF iter   4:  -308.28883234692233   -3.19435e-03   4.48315e-05 DIIS
   @DF-RHF iter   5:  -308.28918469218377   -3.52345e-04   8.41865e-06 DIIS
   @DF-RHF iter   6:  -308.28920464756749   -1.99554e-05   1.90981e-06 DIIS
   @DF-RHF iter   7:  -308.28920592534371   -1.27778e-06   5.76658e-07 DIIS
   @DF-RHF iter   8:  -308.28920602601431   -1.00671e-07   1.71987e-07 DIIS
   @DF-RHF iter   9:  -308.28920603679273   -1.07784e-08   4.81555e-08 DIIS
   @DF-RHF iter  10:  -308.28920603756313   -7.70399e-10   1.83986e-08 DIIS
   @DF-RHF iter  11:  -308.28920603763140   -6.82689e-11   4.71259e-09 DIIS
  Energy and wave function converged.


  ==> Post-Iterations <==

    Orbital Energies [Eh]
    ---------------------

    Doubly Occupied:                                                      

       1A    -20.562057     2A    -20.543593     3A    -11.278947  
       4A    -11.257123     5A    -11.215865     6A    -11.201629  
       7A     -1.369105     8A     -1.349765     9A     -1.019886  
      10A     -0.999125    11A     -0.839691    12A     -0.832924  
      13A     -0.710635    14A     -0.672759    15A     -0.651752  
      16A     -0.613004    17A     -0.599470    18A     -0.580296  
      19A     -0.538972    20A     -0.530900    21A     -0.528135  
      22A     -0.511931    23A     -0.494437    24A     -0.466017  
      25A     -0.445797    26A     -0.428759  

    Virtual:                                                              

      27A      0.026471    28A      0.034254    29A      0.036348  
      30A      0.040179    31A      0.051478    32A      0.053734  
      33A      0.054664    34A      0.064487    35A      0.066664  
      36A      0.076827    37A      0.079106    38A      0.087822  
      39A      0.110148    40A      0.120782    41A      0.122163  
      42A      0.125136    43A      0.131913    44A      0.135521  
      45A      0.135553    46A      0.142921    47A      0.152035  
      48A      0.152854    49A      0.156949    50A      0.161794  
      51A      0.164843    52A      0.180010    53A      0.185905  
      54A      0.194598    55A      0.201972    56A      0.210156  
      57A      0.219031    58A      0.226882    59A      0.231908  
      60A      0.238687    61A      0.247175    62A      0.252800  
      63A      0.270154    64A      0.275353    65A      0.280674  
      66A      0.288788    67A      0.290686    68A      0.301578  
      69A      0.309138    70A      0.314824    71A      0.318257  
      72A      0.323560    73A      0.331173    74A      0.338882  
      75A      0.344594    76A      0.351101    77A      0.352763  
      78A      0.361382    79A      0.365286    80A      0.366493  
      81A      0.368875    82A      0.372657    83A      0.378065  
      84A      0.382625    85A      0.393645    86A      0.396771  
      87A      0.404176    88A      0.408815    89A      0.409874  
      90A      0.416573    91A      0.424739    92A      0.429987  
      93A      0.438360    94A      0.439983    95A      0.444730  
      96A      0.450205    97A      0.451893    98A      0.458597  
      99A      0.463173   100A      0.468337   101A      0.473920  
     102A      0.478947   103A      0.482770   104A      0.490770  
     105A      0.498640   106A      0.504360   107A      0.508473  
     108A      0.514374   109A      0.517330   110A      0.520247  
     111A      0.531582   112A      0.534332   113A      0.536626  
     114A      0.540580   115A      0.553755   116A      0.557107  
     117A      0.563197   118A      0.568999   119A      0.575103  
     120A      0.585497   121A      0.589710   122A      0.593425  
     123A      0.601612   124A      0.618909   125A      0.626104  
     126A      0.633132   127A      0.638710   128A      0.651358  
     129A      0.670533   130A      0.674554   131A      0.690431  
     132A      0.692360   133A      0.709981   134A      0.720893  
     135A      0.740644   136A      0.746931   137A      0.758511  
     138A      0.763354   139A      0.780525   140A      0.788733  
     141A      0.797371   142A      0.800229   143A      0.807252  
     144A      0.817783   145A      0.831877   146A      0.835418  
     147A      0.849401   148A      0.853827   149A      0.856762  
     150A      0.861541   151A      0.871202   152A      0.873456  
     153A      0.878489   154A      0.889364   155A      0.890349  
     156A      0.899105   157A      0.902804   158A      0.911218  
     159A      0.922052   160A      0.931665   161A      0.934300  
     162A      0.945718   163A      0.954275   164A      0.959977  
     165A      0.962497   166A      0.968168   167A      0.972373  
     168A      0.973909   169A      0.989477   170A      1.002509  
     171A      1.003837   172A      1.007741   173A      1.010491  
     174A      1.018180   175A      1.037623   176A      1.038323  
     177A      1.043904   178A      1.046669   179A      1.057457  
     180A      1.064712   181A      1.078827   182A      1.080425  
     183A      1.088465   184A      1.093445   185A      1.098907  
     186A      1.111681   187A      1.117196   188A      1.123275  
     189A      1.128321   190A      1.133073   191A      1.138926  
     192A      1.145594   193A      1.149429   194A      1.157158  
     195A      1.160734   196A      1.167613   197A      1.172551  
     198A      1.187690   199A      1.195541   200A      1.208840  
     201A      1.217979   202A      1.220200   203A      1.232502  
     204A      1.240852   205A      1.250561   206A      1.263018  
     207A      1.269613   208A      1.276807   209A      1.279060  
     210A      1.288937   211A      1.297733   212A      1.308935  
     213A      1.324302   214A      1.328307   215A      1.345023  
     216A      1.355281   217A      1.360723   218A      1.365662  
     219A      1.384498   220A      1.387029   221A      1.400362  
     222A      1.404181   223A      1.415544   224A      1.422693  
     225A      1.438632   226A      1.445976   227A      1.448284  
     228A      1.460385   229A      1.483360   230A      1.486562  
     231A      1.493942   232A      1.495987   233A      1.509108  
     234A      1.523069   235A      1.536355   236A      1.560824  
     237A      1.562773   238A      1.575104   239A      1.589961  
     240A      1.593850   241A      1.610226   242A      1.616671  
     243A      1.624437   244A      1.632823   245A      1.645294  
     246A      1.654075   247A      1.664158   248A      1.669819  
     249A      1.678703   250A      1.688094   251A      1.705755  
     252A      1.706588   253A      1.716040   254A      1.721416  
     255A      1.733486   256A      1.741764   257A      1.748156  
     258A      1.758562   259A      1.765621   260A      1.768840  
     261A      1.782726   262A      1.794220   263A      1.805558  
     264A      1.813399   265A      1.822550   266A      1.832037  
     267A      1.836722   268A      1.843123   269A      1.846607  
     270A      1.854327   271A      1.863212   272A      1.884797  
     273A      1.892479   274A      1.913885   275A      1.923725  
     276A      1.944964   277A      1.960262   278A      1.963316  
     279A      1.970515   280A      1.976315   281A      1.984702  
     282A      1.992982   283A      2.001835   284A      2.015470  
     285A      2.030075   286A      2.042896   287A      2.050195  
     288A      2.073837   289A      2.096542   290A      2.102600  
     291A      2.112488   292A      2.124420   293A      2.132623  
     294A      2.140320   295A      2.154405   296A      2.164313  
     297A      2.175799   298A      2.197415   299A      2.209648  
     300A      2.219682   301A      2.249548   302A      2.265491  
     303A      2.271014   304A      2.280284   305A      2.302264  
     306A      2.311921   307A      2.318145   308A      2.334086  
     309A      2.340073   310A      2.356293   311A      2.372743  
     312A      2.389795   313A      2.421751   314A      2.440475  
     315A      2.460065   316A      2.473923   317A      2.492041  
     318A      2.500095   319A      2.555621   320A      2.574730  
     321A      2.588557   322A      2.607359   323A      2.624538  
     324A      2.672132   325A      2.696959   326A      2.723620  
     327A      2.744896   328A      2.772498   329A      2.799170  
     330A      2.827685   331A      2.866930   332A      2.881698  
     333A      2.906947   334A      2.938082   335A      2.945291  
     336A      2.951099   337A      2.961185   338A      2.990185  
     339A      3.003311   340A      3.028781   341A      3.037450  
     342A      3.057918   343A      3.072556   344A      3.134027  
     345A      3.164366   346A      3.208257   347A      3.226677  
     348A      3.232441   349A      3.278129   350A      3.333314  
     351A      3.379692   352A      3.397372   353A      3.437603  
     354A      3.466230   355A      3.470799   356A      3.479665  
     357A      3.494719   358A      3.504779   359A      3.529454  
     360A      3.571694   361A      3.600978   362A      3.634313  
     363A      3.645714   364A      3.655563   365A      3.657344  
     366A      3.665023   367A      3.668438   368A      3.682184  
     369A      3.689686   370A      3.711690   371A      3.715051  
     372A      3.736492   373A      3.742626   374A      3.780335  
     375A      3.792679   376A      3.799805   377A      3.816723  
     378A      3.826714   379A      3.854022   380A      3.866585  
     381A      3.871997   382A      3.885796   383A      3.901580  
     384A      3.924317   385A      3.924599   386A      3.947701  
     387A      3.974242   388A      3.989165   389A      4.000361  
     390A      4.003902   391A      4.017547   392A      4.026188  
     393A      4.037675   394A      4.051056   395A      4.078484  
     396A      4.080285   397A      4.101864   398A      4.105072  
     399A      4.112100   400A      4.129518   401A      4.153710  
     402A      4.166785   403A      4.178567   404A      4.192016  
     405A      4.207997   406A      4.219642   407A      4.224873  
     408A      4.242221   409A      4.249471   410A      4.257733  
     411A      4.268588   412A      4.295798   413A      4.302888  
     414A      4.328753   415A      4.334593   416A      4.365848  
     417A      4.374052   418A      4.395954   419A      4.399420  
     420A      4.452027   421A      4.486987   422A      4.517057  
     423A      4.519807   424A      4.528076   425A      4.538124  
     426A      4.565426   427A      4.573542   428A      4.575885  
     429A      4.598145   430A      4.617752   431A      4.630905  
     432A      4.648211   433A      4.660722   434A      4.673073  
     435A      4.691840   436A      4.728059   437A      4.741558  
     438A      4.752258   439A      4.776567   440A      4.788736  
     441A      4.799277   442A      4.823963   443A      4.843186  
     444A      4.876392   445A      4.883399   446A      4.898898  
     447A      4.902391   448A      4.920657   449A      4.926258  
     450A      4.935304   451A      4.956285   452A      4.975577  
     453A      4.993233   454A      4.998668   455A      5.030314  
     456A      5.043450   457A      5.066210   458A      5.079052  
     459A      5.089818   460A      5.122973   461A      5.136343  
     462A      5.161233   463A      5.165291   464A      5.181172  
     465A      5.196665   466A      5.208290   467A      5.226058  
     468A      5.250252   469A      5.292518   470A      5.315140  
     471A      5.327668   472A      5.335788   473A      5.360444  
     474A      5.367675   475A      5.391340   476A      5.406454  
     477A      5.427338   478A      5.451598   479A      5.487292  
     480A      5.496183   481A      5.513584   482A      5.516688  
     483A      5.540520   484A      5.578052   485A      5.580719  
     486A      5.594070   487A      5.609205   488A      5.631309  
     489A      5.642293   490A      5.664922   491A      5.712577  
     492A      5.752070   493A      5.760591   494A      5.772537  
     495A      5.833451   496A      5.840244   497A      5.846481  
     498A      5.887462   499A      6.001270   500A      6.034307  
     501A      6.061570   502A      6.117229   503A      6.134935  
     504A      6.151617   505A      6.161158   506A      6.197211  
     507A      6.217544   508A      6.245993   509A      6.250578  
     510A      6.269434   511A      6.273686   512A      6.312943  
     513A      6.390277   514A      6.453338   515A      6.700055  
     516A      6.716757   517A      6.745253   518A      6.761299  
     519A      6.839005   520A      6.860151   521A      6.888786  
     522A      6.889715   523A      6.966650   524A      6.989001  
     525A      6.994344   526A      7.040320   527A      7.131999  
     528A      7.150463   529A      7.342889   530A      7.365315  
     531A      7.385993   532A      7.404622   533A      7.478186  
     534A      7.531288   535A      7.545469   536A      7.566181  
     537A      7.666035   538A      7.716523   539A      7.836324  
     540A      7.879204   541A      7.954854   542A      7.969535  
     543A      8.260333   544A      8.275243   545A      8.633030  
     546A      8.654090   547A     15.951420   548A     16.371520  
     549A     17.864263   550A     18.145930   551A     18.472052  
     552A     18.658812  

    Final Occupation by Irrep:
              A 
    DOCC [    26 ]
    NA   [    26 ]
    NB   [    26 ]

  @DF-RHF Final Energy:  -308.28920603763140

   => Energetics <=

    Nuclear Repulsion Energy =            249.4581247359753320
    One-Electron Energy =                -915.0095068851352380
    Two-Electron Energy =                 357.2621761115285608
    Total Energy =                       -308.2892060376314021

Computation Completed


Properties will be evaluated at   0.000000,   0.000000,   0.000000 [a0]

Properties computed using the SCF density matrix


 Multipole Moments:

 ------------------------------------------------------------------------------------
     Multipole            Electronic (a.u.)      Nuclear  (a.u.)        Total (a.u.)
 ------------------------------------------------------------------------------------

 L = 1.  Multiply by 2.5417464519 to convert [e a0] to [Debye]
 Dipole X            :          1.0089209            0.0000000            1.0089209
 Dipole Y            :          0.1947784           -0.0000019            0.1947765
 Dipole Z            :          0.4816839           -0.0000227            0.4816612
 Magnitude           :                                                    1.1348378

 ------------------------------------------------------------------------------------

*** tstop() called on Moses-MBP.lan at Thu Feb 27 17:46:43 2025
Module time:
	user time   =      88.37 seconds =       1.47 minutes
	system time =       6.99 seconds =       0.12 minutes
	total time  =         12 seconds =       0.20 minutes
Total time:
	user time   =     271.82 seconds =       4.53 minutes
	system time =      23.00 seconds =       0.38 minutes
	total time  =         37 seconds =       0.62 minutes

*** tstart() called on Moses-MBP.lan
*** at Thu Feb 27 17:46:43 2025


  //>>>>>>>>>>>>>>>>>>>>>>>>>>>>>>>>>>>//
  //               DFMP2               //
  //<<<<<<<<<<<<<<<<<<<<<<<<<<<<<<<<<<<//

   => Loading Basis Set <=

    Name: (AUG-CC-PVTZ AUX)
    Role: RIFIT
    Keyword: DF_BASIS_MP2
    atoms 1-2, 10-11 entry C          line   148 file /Users/moseschung/miniconda3/envs/psi4/share/psi4/basis/aug-cc-pvtz-ri.gbs 
    atoms 3, 12      entry O          line   264 file /Users/moseschung/miniconda3/envs/psi4/share/psi4/basis/aug-cc-pvtz-ri.gbs 
    atoms 4-9, 13-18 entry H          line    30 file /Users/moseschung/miniconda3/envs/psi4/share/psi4/basis/aug-cc-pvtz-ri.gbs 

	 --------------------------------------------------------
	                          DF-MP2                         
	      2nd-Order Density-Fitted Moller-Plesset Theory     
	              RMP2 Wavefunction,  10 Threads             
	                                                         
	        Rob Parrish, Justin Turney, Andy Simmonett,      
	           Ed Hohenstein, and C. David Sherrill          
	 --------------------------------------------------------

   => Auxiliary Basis Set <=

  Basis Set: (AUG-CC-PVTZ AUX)
    Blend: AUG-CC-PVTZ-RI
    Number of shells: 336
    Number of basis functions: 1188
    Number of Cartesian functions: 1476
    Spherical Harmonics?: true
    Max angular momentum: 4

	 --------------------------------------------------------
	                 NBF =   552, NAUX =  1188
	 --------------------------------------------------------
	   CLASS    FOCC     OCC    AOCC    AVIR     VIR    FVIR
	   PAIRS       0      26      26     526     526       0
	 --------------------------------------------------------

	-----------------------------------------------------------
	 ==================> DF-MP2 Energies <==================== 
	-----------------------------------------------------------
	 Reference Energy          =    -308.2892060376314021 [Eh]
	 Singles Energy            =      -0.0000000000000000 [Eh]
	 Same-Spin Energy          =      -0.2985136549757231 [Eh]
	 Opposite-Spin Energy      =      -1.0384971701323304 [Eh]
	 Correlation Energy        =      -1.3370108251080537 [Eh]
	 Total Energy              =    -309.6262168627394544 [Eh]
	-----------------------------------------------------------
	 ================> DF-SCS-MP2 Energies <================== 
	-----------------------------------------------------------
	 SCS Same-Spin Scale       =       0.3333333333333333 [-]
	 SCS Opposite-Spin Scale   =       1.2000000000000000 [-]
	 SCS Same-Spin Energy      =      -0.0995045516585744 [Eh]
	 SCS Opposite-Spin Energy  =      -1.2461966041587964 [Eh]
	 SCS Correlation Energy    =      -1.3457011558173708 [Eh]
	 SCS Total Energy          =    -309.6349071934487824 [Eh]
	-----------------------------------------------------------


*** tstop() called on Moses-MBP.lan at Thu Feb 27 17:46:48 2025
Module time:
	user time   =      32.46 seconds =       0.54 minutes
	system time =       2.62 seconds =       0.04 minutes
	total time  =          5 seconds =       0.08 minutes
Total time:
	user time   =     304.29 seconds =       5.07 minutes
	system time =      25.62 seconds =       0.43 minutes
	total time  =         42 seconds =       0.70 minutes

    Psi4 stopped on: Thursday, 27 February 2025 05:46PM
    Psi4 wall time for execution: 0:00:16.39


  //>>>>>>>>>>>>>>>>>>>>>>>>>>>>>>>>>>>//
  //          ManyBody Results         //
  //<<<<<<<<<<<<<<<<<<<<<<<<<<<<<<<<<<<//


   ==> N-Body: Counterpoise Corrected (CP) energies <==

        n-Body     Total Energy            Interaction Energy                          N-body Contribution to Interaction Energy
                   [Eh]                    [Eh]                  [kcal/mol]            [Eh]                  [kcal/mol]
             1  N/A                         0.000000000000        0.000000000000        0.000000000000        0.000000000000
  FULL/RTN   2  N/A                        -0.002880374110       -1.807462041919       -0.002880374110       -1.807462041919


    Psi4 stopped on: Thursday, 27 February 2025 05:46PM
    Psi4 wall time for execution: 0:00:43.25

*** Psi4 exiting successfully. Buy a developer a beer!
