
    -----------------------------------------------------------------------
          Psi4: An Open-Source Ab Initio Electronic Structure Package
                               Psi4 1.9.1 release

                         Git: Rev {} zzzzzzz 


    D. G. A. Smith, L. A. Burns, A. C. Simmonett, R. M. Parrish,
    M. C. Schieber, R. Galvelis, P. Kraus, H. Kruse, R. Di Remigio,
    A. Alenaizan, A. M. James, S. Lehtola, J. P. Misiewicz, M. Scheurer,
    R. A. Shaw, J. B. Schriber, Y. Xie, Z. L. Glick, D. A. Sirianni,
    J. S. O'Brien, J. M. Waldrop, A. Kumar, E. G. Hohenstein,
    B. P. Pritchard, B. R. Brooks, H. F. Schaefer III, A. Yu. Sokolov,
    K. Patkowski, A. E. DePrince III, U. Bozkaya, R. A. King,
    F. A. Evangelista, J. M. Turney, T. D. Crawford, C. D. Sherrill,
    J. Chem. Phys. 152(18) 184108 (2020). https://doi.org/10.1063/5.0006002

                            Additional Code Authors
    E. T. Seidl, C. L. Janssen, E. F. Valeev, M. L. Leininger,
    J. F. Gonthier, R. M. Richard, H. R. McAlexander, M. Saitow, X. Wang,
    P. Verma, M. H. Lechner, A. Jiang, S. Behnle, A. G. Heide,
    M. F. Herbst, and D. L. Poole

             Previous Authors, Complete List of Code Contributors,
                       and Citations for Specific Modules
    https://github.com/psi4/psi4/blob/master/codemeta.json
    https://github.com/psi4/psi4/graphs/contributors
    http://psicode.org/psi4manual/master/introduction.html#citing-psifour

    -----------------------------------------------------------------------


    Psi4 started on: Thursday, 27 February 2025 05:33PM

    Process ID: 31177
    Host:       Moses-MBP.lan
    PSIDATADIR: /Users/moseschung/miniconda3/envs/psi4/share/psi4
    Memory:     500.0 MiB
    Threads:    10
    
  ==> Input File <==

--------------------------------------------------------------------------
MEMORY 10 GB

molecule dimer {
0 1
C    1.655811  -1.171747   0.509564
C    1.795850  -0.093145  -0.528686
O    2.003725   1.125419   0.149762
H    2.071690   1.835601  -0.491492
H    1.461846  -2.141374   0.045964
H    0.838679  -0.935019   1.198796
H    2.565024  -1.253844   1.107180
H    0.890088  -0.047115  -1.152184
H    2.636862  -0.321483  -1.198187
--
0 1
C   -1.556423   1.252588   0.087970
C   -2.276187  -0.062253   0.262607
O   -1.702117  -1.106192  -0.492968
H   -0.840962  -1.312772  -0.118603
H   -2.067779   2.051162   0.630320
H   -1.520351   1.525167  -0.969614
H   -0.528570   1.202618   0.461108
H   -3.309605   0.021323  -0.084215
H   -2.324097  -0.330739   1.327845

units ang
no_reorient
no_com
symmetry c1
}

set {
basis        aug-cc-pVTZ
scf_type     df
}

energy("mp2", bsse_type="cp")
--------------------------------------------------------------------------

  Memory set to   9.313 GiB by Python driver.

Scratch directory: /tmp/

  //>>>>>>>>>>>>>>>>>>>>>>>>>>>>>>>>>>>>>//
  // ManyBody Setup: N-Body Levels [1, 2]//
  //<<<<<<<<<<<<<<<<<<<<<<<<<<<<<<<<<<<<<//

        Number of 1-body computations:     2
        Number of 2-body computations:     1

    -----------------------------------------------------------------------
          Psi4: An Open-Source Ab Initio Electronic Structure Package
                               Psi4 1.9.1 release

                         Git: Rev {} zzzzzzz 


    D. G. A. Smith, L. A. Burns, A. C. Simmonett, R. M. Parrish,
    M. C. Schieber, R. Galvelis, P. Kraus, H. Kruse, R. Di Remigio,
    A. Alenaizan, A. M. James, S. Lehtola, J. P. Misiewicz, M. Scheurer,
    R. A. Shaw, J. B. Schriber, Y. Xie, Z. L. Glick, D. A. Sirianni,
    J. S. O'Brien, J. M. Waldrop, A. Kumar, E. G. Hohenstein,
    B. P. Pritchard, B. R. Brooks, H. F. Schaefer III, A. Yu. Sokolov,
    K. Patkowski, A. E. DePrince III, U. Bozkaya, R. A. King,
    F. A. Evangelista, J. M. Turney, T. D. Crawford, C. D. Sherrill,
    J. Chem. Phys. 152(18) 184108 (2020). https://doi.org/10.1063/5.0006002

                            Additional Code Authors
    E. T. Seidl, C. L. Janssen, E. F. Valeev, M. L. Leininger,
    J. F. Gonthier, R. M. Richard, H. R. McAlexander, M. Saitow, X. Wang,
    P. Verma, M. H. Lechner, A. Jiang, S. Behnle, A. G. Heide,
    M. F. Herbst, and D. L. Poole

             Previous Authors, Complete List of Code Contributors,
                       and Citations for Specific Modules
    https://github.com/psi4/psi4/blob/master/codemeta.json
    https://github.com/psi4/psi4/graphs/contributors
    http://psicode.org/psi4manual/master/introduction.html#citing-psifour

    -----------------------------------------------------------------------


    Psi4 started on: Thursday, 27 February 2025 05:33PM

    Process ID: 31177
    Host:       Moses-MBP.lan
    PSIDATADIR: /Users/moseschung/miniconda3/envs/psi4/share/psi4
    Memory:     9.3 GiB
    Threads:    10
    
  ==> Input QCSchema <==

--------------------------------------------------------------------------
{'driver': 'energy',
 'extras': {'psiapi': True, 'wfn_qcvars_only': True},
 'id': None,
 'keywords': {'SCF_TYPE': 'DF', 'function_kwargs': {}},
 'model': {'basis': 'aug-cc-pvtz', 'method': 'mp2'},
 'molecule': {'atom_labels': ['', '', '', '', '', '', '', '', '', '', '', '', '', '', '', '', '', ''],
              'atomic_numbers': [6, 6, 8, 1, 1, 1, 1, 1, 1, 6, 6, 8, 1, 1, 1, 1, 1, 1],
              'extras': {},
              'fix_com': True,
              'fix_orientation': True,
              'fix_symmetry': 'c1',
              'fragment_charges': [0.0, 0.0],
              'fragment_multiplicities': [1, 1],
              'fragments': [[0, 1, 2, 3, 4, 5, 6, 7, 8], [9, 10, 11, 12, 13, 14, 15, 16, 17]],
              'geometry': [3.1290293055204517, -2.2142809183268337, 0.9629364033927927, 3.393664662403441,
                           -0.1760185399557694, -0.9990717463637974, 3.786491480732987, 2.1267336863866233,
                           0.28300916400081527, 3.9149267168497275, 3.468783165616515, -0.9287852728535189,
                           2.762488577596024, -4.046610392176131, 0.08685937163054361, 1.5848736171728457,
                           -1.766929832099453, 2.2653961202943425, 4.847192865226341, -2.369421764048545,
                           2.0922669715843982, 1.6820225475565074, -0.08903444640094557, -2.1773122061345025,
                           4.9829470106269795, -0.607514823990559, -2.2642452770839383, -2.941213205363449,
                           2.3670482680349703, 0.16623920725652516, -4.301370040327478, -0.11764112048812618,
                           0.49625530862810385, -3.2165349634859024, -2.090399922172446, -0.9315745086146947,
                           -1.5891878619172661, -2.4807795451695243, -0.22412718765767478, -3.907535997973062,
                           3.87613441894633, 1.1911321713985783, -2.8730470045659344, 2.882147925586139,
                           -1.8323049074096665, -0.9988525381332441, 2.2726186535458424, 0.8713678342576082,
                           -6.254247033445855, 0.04029463017313727, -0.15914328565543098, -4.391906818998162,
                           -0.6250061290077966, 2.50926338705855],
              'mass_numbers': [12, 12, 16, 1, 1, 1, 1, 1, 1, 12, 12, 16, 1, 1, 1, 1, 1, 1],
              'masses': [12.0, 12.0, 15.99491461957, 1.00782503223, 1.00782503223, 1.00782503223, 1.00782503223,
                         1.00782503223, 1.00782503223, 12.0, 12.0, 15.99491461957, 1.00782503223, 1.00782503223,
                         1.00782503223, 1.00782503223, 1.00782503223, 1.00782503223],
              'molecular_charge': 0.0,
              'molecular_multiplicity': 1,
              'name': 'dimer',
              'provenance': {'creator': 'QCElemental',
                             'routine': 'qcelemental.molparse.from_string',
                             'version': '0.29.0'},
              'real': [False, False, False, False, False, False, False, False, False, True, True, True, True, True,
                       True, True, True, True],
              'schema_name': 'qcschema_molecule',
              'schema_version': 2,
              'symbols': ['C', 'C', 'O', 'H', 'H', 'H', 'H', 'H', 'H', 'C', 'C', 'O', 'H', 'H', 'H', 'H', 'H', 'H'],
              'validated': True},
 'protocols': {'stdout': True},
 'provenance': {'creator': 'QCElemental', 'routine': 'qcelemental.models.results', 'version': '0.29.0'},
 'schema_name': 'qcschema_input',
 'schema_version': 1}
--------------------------------------------------------------------------

Scratch directory: /tmp/
   => Libint2 <=

    Primary   basis highest AM E, G, H:  6, 6, 3
    Auxiliary basis highest AM E, G, H:  7, 7, 4
    Onebody   basis highest AM E, G, H:  -, -, -
    Solid Harmonics ordering:            Gaussian

*** tstart() called on Moses-MBP.lan
*** at Thu Feb 27 17:33:59 2025

   => Loading Basis Set <=

    Name: AUG-CC-PVTZ
    Role: ORBITAL
    Keyword: BASIS
    atoms 1-2, 10-11 entry C          line   239 file /Users/moseschung/miniconda3/envs/psi4/share/psi4/basis/aug-cc-pvtz.gbs 
    atoms 3, 12      entry O          line   331 file /Users/moseschung/miniconda3/envs/psi4/share/psi4/basis/aug-cc-pvtz.gbs 
    atoms 4-9, 13-18 entry H          line    40 file /Users/moseschung/miniconda3/envs/psi4/share/psi4/basis/aug-cc-pvtz.gbs 


         ---------------------------------------------------------
                                   SCF
               by Justin Turney, Rob Parrish, Andy Simmonett
                          and Daniel G. A. Smith
                              RHF Reference
                       10 Threads,   9536 MiB Core
         ---------------------------------------------------------

  ==> Geometry <==

    Molecular point group: c1
    Full point group: C1

    Geometry (in Bohr), charge = 0, multiplicity = 1:

       Center              X                  Y                   Z               Mass       
    ------------   -----------------  -----------------  -----------------  -----------------
      Gh(C)           3.129029305520    -2.214280918327     0.962936403393    12.000000000000
      Gh(C)           3.393664662403    -0.176018539956    -0.999071746364    12.000000000000
      Gh(O)           3.786491480733     2.126733686387     0.283009164001    15.994914619570
      Gh(H)           3.914926716850     3.468783165617    -0.928785272854     1.007825032230
      Gh(H)           2.762488577596    -4.046610392176     0.086859371631     1.007825032230
      Gh(H)           1.584873617173    -1.766929832099     2.265396120294     1.007825032230
      Gh(H)           4.847192865226    -2.369421764049     2.092266971584     1.007825032230
      Gh(H)           1.682022547557    -0.089034446401    -2.177312206135     1.007825032230
      Gh(H)           4.982947010627    -0.607514823991    -2.264245277084     1.007825032230
         C           -2.941213205363     2.367048268035     0.166239207257    12.000000000000
         C           -4.301370040327    -0.117641120488     0.496255308628    12.000000000000
         O           -3.216534963486    -2.090399922172    -0.931574508615    15.994914619570
         H           -1.589187861917    -2.480779545170    -0.224127187658     1.007825032230
         H           -3.907535997973     3.876134418946     1.191132171399     1.007825032230
         H           -2.873047004566     2.882147925586    -1.832304907410     1.007825032230
         H           -0.998852538133     2.272618653546     0.871367834258     1.007825032230
         H           -6.254247033446     0.040294630173    -0.159143285655     1.007825032230
         H           -4.391906818998    -0.625006129008     2.509263387059     1.007825032230

  Running in c1 symmetry.

  Rotational constants: A =      0.14531  B =      0.04956  C =      0.04061 [cm^-1]
  Rotational constants: A =   4356.24599  B =   1485.73428  C =   1217.58071 [MHz]
  Nuclear repulsion =   82.020241547285565

  Charge       = 0
  Multiplicity = 1
  Electrons    = 26
  Nalpha       = 13
  Nbeta        = 13

  ==> Algorithm <==

  SCF Algorithm Type is DF.
  DIIS enabled.
  MOM disabled.
  Fractional occupation disabled.
  Guess Type is SAD.
  Energy threshold   = 1.00e-08
  Density threshold  = 1.00e-08
  Integral threshold = 1.00e-12

  ==> Primary Basis <==

  Basis Set: AUG-CC-PVTZ
    Blend: AUG-CC-PVTZ
    Number of shells: 192
    Number of basis functions: 552
    Number of Cartesian functions: 630
    Spherical Harmonics?: true
    Max angular momentum: 3

   => Loading Basis Set <=

    Name: (AUG-CC-PVTZ AUX)
    Role: JKFIT
    Keyword: DF_BASIS_SCF
    atoms 1-2, 10-11 entry C          line   162 file /Users/moseschung/miniconda3/envs/psi4/share/psi4/basis/aug-cc-pvtz-jkfit.gbs 
    atoms 3, 12      entry O          line   286 file /Users/moseschung/miniconda3/envs/psi4/share/psi4/basis/aug-cc-pvtz-jkfit.gbs 
    atoms 4-9, 13-18 entry H          line    70 file /Users/moseschung/miniconda3/envs/psi4/share/psi4/basis/aug-cc-pvtz-jkfit.gbs 

  ==> Integral Setup <==

  DFHelper Memory: AOs need 2.643 GiB; user supplied 6.985 GiB. 
  Using in-core AOs.

  ==> MemDFJK: Density-Fitted J/K Matrices <==

    J tasked:                   Yes
    K tasked:                   Yes
    wK tasked:                   No
    OpenMP threads:              10
    Memory [MiB]:              7152
    Algorithm:                 Core
    Schwarz Cutoff:           1E-12
    Mask sparsity (%):       4.5310
    Fitting Condition:        1E-10

   => Auxiliary Basis Set <=

  Basis Set: (AUG-CC-PVTZ AUX)
    Blend: AUG-CC-PVTZ-JKFIT
    Number of shells: 348
    Number of basis functions: 1176
    Number of Cartesian functions: 1446
    Spherical Harmonics?: true
    Max angular momentum: 4

  Minimum eigenvalue in the overlap matrix is 5.0543338922E-06.
  Reciprocal condition number of the overlap matrix is 2.5965195304E-07.
    Using symmetric orthogonalization.

  ==> Pre-Iterations <==

  SCF Guess: Superposition of Atomic Densities via on-the-fly atomic UHF (no occupation information).

   -------------------------
    Irrep   Nso     Nmo    
   -------------------------
     A        552     552 
   -------------------------
    Total     552     552
   -------------------------

  ==> Iterations <==

                           Total Energy        Delta E     RMS |[F,P]|

   @DF-RHF iter SAD:  -153.44593825171086   -1.53446e+02   0.00000e+00 
   @DF-RHF iter   1:  -154.00312677930629   -5.57189e-01   9.39346e-04 DIIS/ADIIS
   @DF-RHF iter   2:  -154.11501872106132   -1.11892e-01   4.97867e-04 DIIS/ADIIS
   @DF-RHF iter   3:  -154.14332323950651   -2.83045e-02   8.38603e-05 DIIS
   @DF-RHF iter   4:  -154.14490187800115   -1.57864e-03   3.22246e-05 DIIS
   @DF-RHF iter   5:  -154.14508910077592   -1.87223e-04   6.19896e-06 DIIS
   @DF-RHF iter   6:  -154.14509945185858   -1.03511e-05   1.41586e-06 DIIS
   @DF-RHF iter   7:  -154.14510017401312   -7.22155e-07   4.05993e-07 DIIS
   @DF-RHF iter   8:  -154.14510022806579   -5.40527e-08   1.27603e-07 DIIS
   @DF-RHF iter   9:  -154.14510023421789   -6.15211e-09   3.27010e-08 DIIS
   @DF-RHF iter  10:  -154.14510023465795   -4.40053e-10   6.48135e-09 DIIS
  Energy and wave function converged.


  ==> Post-Iterations <==

    Orbital Energies [Eh]
    ---------------------

    Doubly Occupied:                                                      

       1A    -20.555834     2A    -11.273655     3A    -11.216795  
       4A     -1.361657     5A     -1.013598     6A     -0.846271  
       7A     -0.691449     8A     -0.625924     9A     -0.604088  
      10A     -0.546809    11A     -0.525287    12A     -0.478663  
      13A     -0.443685  

    Virtual:                                                              

      14A      0.019688    15A      0.033490    16A      0.034520  
      17A      0.039172    18A      0.051283    19A      0.052058  
      20A      0.053997    21A      0.061694    22A      0.067696  
      23A      0.078168    24A      0.082079    25A      0.084680  
      26A      0.090860    27A      0.106677    28A      0.109318  
      29A      0.119957    30A      0.121935    31A      0.126515  
      32A      0.127737    33A      0.136892    34A      0.141295  
      35A      0.146984    36A      0.152124    37A      0.160190  
      38A      0.160423    39A      0.163576    40A      0.168775  
      41A      0.188543    42A      0.196942    43A      0.198961  
      44A      0.205171    45A      0.218971    46A      0.228764  
      47A      0.238711    48A      0.242418    49A      0.248240  
      50A      0.253876    51A      0.262848    52A      0.279597  
      53A      0.286900    54A      0.292912    55A      0.295776  
      56A      0.300996    57A      0.306967    58A      0.308712  
      59A      0.315243    60A      0.324100    61A      0.328840  
      62A      0.333032    63A      0.333902    64A      0.342886  
      65A      0.348013    66A      0.352116    67A      0.354803  
      68A      0.360712    69A      0.365784    70A      0.371474  
      71A      0.372613    72A      0.383321    73A      0.386719  
      74A      0.388640    75A      0.400218    76A      0.410444  
      77A      0.415537    78A      0.422719    79A      0.426849  
      80A      0.437112    81A      0.439859    82A      0.448858  
      83A      0.453680    84A      0.456986    85A      0.461876  
      86A      0.463889    87A      0.469550    88A      0.481218  
      89A      0.487119    90A      0.490746    91A      0.498550  
      92A      0.502835    93A      0.509095    94A      0.511949  
      95A      0.519350    96A      0.530546    97A      0.533165  
      98A      0.537244    99A      0.550108   100A      0.554897  
     101A      0.559662   102A      0.562182   103A      0.566152  
     104A      0.571074   105A      0.583078   106A      0.594776  
     107A      0.601386   108A      0.616169   109A      0.619192  
     110A      0.623910   111A      0.634985   112A      0.638727  
     113A      0.640729   114A      0.647921   115A      0.659583  
     116A      0.663204   117A      0.668700   118A      0.681812  
     119A      0.695875   120A      0.706477   121A      0.713741  
     122A      0.718695   123A      0.730843   124A      0.733630  
     125A      0.742909   126A      0.768568   127A      0.779967  
     128A      0.792533   129A      0.793870   130A      0.805603  
     131A      0.825218   132A      0.831151   133A      0.842552  
     134A      0.853488   135A      0.860356   136A      0.866915  
     137A      0.868983   138A      0.880912   139A      0.894296  
     140A      0.897592   141A      0.906024   142A      0.913880  
     143A      0.928383   144A      0.933163   145A      0.943069  
     146A      0.945569   147A      0.951209   148A      0.961286  
     149A      0.973862   150A      0.977127   151A      0.982367  
     152A      0.998397   153A      1.003739   154A      1.009550  
     155A      1.024275   156A      1.027596   157A      1.034582  
     158A      1.051062   159A      1.053696   160A      1.062628  
     161A      1.065186   162A      1.069417   163A      1.073511  
     164A      1.081537   165A      1.089613   166A      1.091405  
     167A      1.099259   168A      1.113577   169A      1.115267  
     170A      1.119617   171A      1.133822   172A      1.137839  
     173A      1.150173   174A      1.151708   175A      1.156572  
     176A      1.162204   177A      1.171371   178A      1.179289  
     179A      1.184661   180A      1.189716   181A      1.197130  
     182A      1.208386   183A      1.211075   184A      1.218796  
     185A      1.230738   186A      1.236118   187A      1.246545  
     188A      1.253634   189A      1.262539   190A      1.273670  
     191A      1.276233   192A      1.283764   193A      1.292781  
     194A      1.303671   195A      1.313265   196A      1.317902  
     197A      1.331830   198A      1.338553   199A      1.344148  
     200A      1.345257   201A      1.359194   202A      1.361878  
     203A      1.376475   204A      1.380710   205A      1.398117  
     206A      1.402765   207A      1.406608   208A      1.421054  
     209A      1.435850   210A      1.443108   211A      1.451654  
     212A      1.459962   213A      1.465059   214A      1.480210  
     215A      1.484231   216A      1.489582   217A      1.502296  
     218A      1.512502   219A      1.529516   220A      1.543078  
     221A      1.547087   222A      1.560441   223A      1.566161  
     224A      1.583229   225A      1.591746   226A      1.597610  
     227A      1.618243   228A      1.627723   229A      1.635773  
     230A      1.638252   231A      1.651495   232A      1.653261  
     233A      1.658136   234A      1.665977   235A      1.685146  
     236A      1.694771   237A      1.697993   238A      1.709016  
     239A      1.725784   240A      1.735626   241A      1.736216  
     242A      1.759529   243A      1.765687   244A      1.773626  
     245A      1.789768   246A      1.799603   247A      1.811507  
     248A      1.815880   249A      1.824026   250A      1.844031  
     251A      1.850686   252A      1.872577   253A      1.879308  
     254A      1.885387   255A      1.894860   256A      1.911738  
     257A      1.929239   258A      1.937988   259A      1.955548  
     260A      1.963532   261A      1.967788   262A      1.980110  
     263A      1.994794   264A      2.012233   265A      2.018560  
     266A      2.020636   267A      2.032705   268A      2.044312  
     269A      2.054523   270A      2.058448   271A      2.073373  
     272A      2.080855   273A      2.106869   274A      2.114311  
     275A      2.129879   276A      2.147773   277A      2.160612  
     278A      2.165961   279A      2.177525   280A      2.196884  
     281A      2.208205   282A      2.223469   283A      2.239362  
     284A      2.252939   285A      2.263896   286A      2.272585  
     287A      2.291385   288A      2.292164   289A      2.311375  
     290A      2.329078   291A      2.343022   292A      2.353266  
     293A      2.383670   294A      2.408977   295A      2.415639  
     296A      2.426019   297A      2.443859   298A      2.454951  
     299A      2.469515   300A      2.481649   301A      2.501328  
     302A      2.532337   303A      2.568705   304A      2.611628  
     305A      2.616385   306A      2.627358   307A      2.651609  
     308A      2.670477   309A      2.697857   310A      2.704897  
     311A      2.727291   312A      2.741988   313A      2.746073  
     314A      2.763506   315A      2.788609   316A      2.813100  
     317A      2.825405   318A      2.838566   319A      2.851833  
     320A      2.877361   321A      2.908314   322A      2.930669  
     323A      2.940397   324A      2.950474   325A      3.013076  
     326A      3.027104   327A      3.041530   328A      3.075910  
     329A      3.116392   330A      3.143987   331A      3.158365  
     332A      3.186546   333A      3.201714   334A      3.222415  
     335A      3.252175   336A      3.291509   337A      3.305913  
     338A      3.323848   339A      3.375884   340A      3.395959  
     341A      3.417399   342A      3.455421   343A      3.478939  
     344A      3.526916   345A      3.539332   346A      3.580116  
     347A      3.585806   348A      3.594265   349A      3.646818  
     350A      3.652272   351A      3.678577   352A      3.692510  
     353A      3.706445   354A      3.743739   355A      3.750724  
     356A      3.767196   357A      3.803675   358A      3.826225  
     359A      3.845235   360A      3.855153   361A      3.867449  
     362A      3.899712   363A      3.923059   364A      3.956441  
     365A      3.983268   366A      3.998276   367A      4.009856  
     368A      4.059953   369A      4.074196   370A      4.094207  
     371A      4.112464   372A      4.124458   373A      4.134019  
     374A      4.166619   375A      4.178221   376A      4.182962  
     377A      4.194408   378A      4.204585   379A      4.213693  
     380A      4.229492   381A      4.239645   382A      4.263111  
     383A      4.276430   384A      4.295431   385A      4.306179  
     386A      4.331247   387A      4.334280   388A      4.359456  
     389A      4.371171   390A      4.388970   391A      4.413262  
     392A      4.448461   393A      4.451630   394A      4.465606  
     395A      4.481130   396A      4.501117   397A      4.510059  
     398A      4.527398   399A      4.562546   400A      4.569033  
     401A      4.580440   402A      4.583590   403A      4.614321  
     404A      4.617545   405A      4.657810   406A      4.665378  
     407A      4.690197   408A      4.704103   409A      4.716077  
     410A      4.729381   411A      4.742526   412A      4.761128  
     413A      4.780684   414A      4.788824   415A      4.805127  
     416A      4.826351   417A      4.857688   418A      4.872768  
     419A      4.889077   420A      4.892118   421A      4.906058  
     422A      4.930959   423A      4.935056   424A      4.956109  
     425A      4.966985   426A      4.975136   427A      4.999408  
     428A      5.009346   429A      5.018523   430A      5.034382  
     431A      5.042171   432A      5.070460   433A      5.081352  
     434A      5.090359   435A      5.101449   436A      5.111900  
     437A      5.139173   438A      5.163641   439A      5.188764  
     440A      5.218911   441A      5.228320   442A      5.246196  
     443A      5.268228   444A      5.272507   445A      5.319203  
     446A      5.326532   447A      5.355444   448A      5.360980  
     449A      5.375315   450A      5.402540   451A      5.421530  
     452A      5.431776   453A      5.444240   454A      5.464916  
     455A      5.494787   456A      5.505479   457A      5.519531  
     458A      5.546257   459A      5.570305   460A      5.584244  
     461A      5.590400   462A      5.600188   463A      5.615399  
     464A      5.644938   465A      5.661285   466A      5.685169  
     467A      5.702506   468A      5.708351   469A      5.727205  
     470A      5.755101   471A      5.758240   472A      5.803206  
     473A      5.826255   474A      5.836414   475A      5.865670  
     476A      5.919499   477A      5.948372   478A      5.998890  
     479A      6.016001   480A      6.034327   481A      6.068894  
     482A      6.093041   483A      6.133924   484A      6.171952  
     485A      6.196567   486A      6.207749   487A      6.221427  
     488A      6.238886   489A      6.273123   490A      6.287745  
     491A      6.301873   492A      6.339167   493A      6.417891  
     494A      6.454631   495A      6.555570   496A      6.722379  
     497A      6.780457   498A      6.831749   499A      6.860053  
     500A      6.878151   501A      6.904520   502A      6.923933  
     503A      7.010015   504A      7.015614   505A      7.052882  
     506A      7.112622   507A      7.180861   508A      7.189541  
     509A      7.252376   510A      7.308509   511A      7.416413  
     512A      7.445392   513A      7.563450   514A      7.573647  
     515A      7.654175   516A      7.789832   517A      7.821622  
     518A      7.836054   519A      7.879587   520A      7.882815  
     521A      7.913357   522A      7.918876   523A      7.988758  
     524A      8.024280   525A      8.156818   526A      8.187140  
     527A      8.225226   528A      8.288980   529A      8.330198  
     530A      8.399250   531A      8.447523   532A      8.598143  
     533A      8.607811   534A      8.896610   535A      9.070898  
     536A     10.019650   537A     10.127800   538A     10.372361  
     539A     10.403601   540A     10.469840   541A     10.849959  
     542A     11.086947   543A     12.055159   544A     12.426026  
     545A     13.302739   546A     14.159020   547A     16.767686  
     548A     17.839026   549A     18.739006   550A     53.252370  
     551A     54.980651   552A     66.864539  

    Final Occupation by Irrep:
              A 
    DOCC [    13 ]
    NA   [    13 ]
    NB   [    13 ]

  @DF-RHF Final Energy:  -154.14510023465795

   => Energetics <=

    Nuclear Repulsion Energy =             82.0202415472855648
    One-Electron Energy =                -371.9632528464902634
    Two-Electron Energy =                 135.7979110645467813
    Total Energy =                       -154.1451002346579457

Computation Completed


Properties will be evaluated at   0.000000,   0.000000,   0.000000 [a0]

Properties computed using the SCF density matrix


 Multipole Moments:

 ------------------------------------------------------------------------------------
     Multipole            Electronic (a.u.)      Nuclear  (a.u.)        Total (a.u.)
 ------------------------------------------------------------------------------------

 L = 1.  Multiply by 2.5417464519 to convert [e a0] to [Debye]
 Dipole X            :         89.4827356          -89.2025564            0.2801792
 Dipole Y            :         -2.3844225            2.7386535            0.3542310
 Dipole Z            :          1.6587930           -1.1214410            0.5373520
 Magnitude           :                                                    0.7019453

 ------------------------------------------------------------------------------------

*** tstop() called on Moses-MBP.lan at Thu Feb 27 17:34:09 2025
Module time:
	user time   =      71.29 seconds =       1.19 minutes
	system time =       6.47 seconds =       0.11 minutes
	total time  =         10 seconds =       0.17 minutes
Total time:
	user time   =      71.29 seconds =       1.19 minutes
	system time =       6.47 seconds =       0.11 minutes
	total time  =         10 seconds =       0.17 minutes

*** tstart() called on Moses-MBP.lan
*** at Thu Feb 27 17:34:09 2025


  //>>>>>>>>>>>>>>>>>>>>>>>>>>>>>>>>>>>//
  //               DFMP2               //
  //<<<<<<<<<<<<<<<<<<<<<<<<<<<<<<<<<<<//

   => Loading Basis Set <=

    Name: (AUG-CC-PVTZ AUX)
    Role: RIFIT
    Keyword: DF_BASIS_MP2
    atoms 1-2, 10-11 entry C          line   148 file /Users/moseschung/miniconda3/envs/psi4/share/psi4/basis/aug-cc-pvtz-ri.gbs 
    atoms 3, 12      entry O          line   264 file /Users/moseschung/miniconda3/envs/psi4/share/psi4/basis/aug-cc-pvtz-ri.gbs 
    atoms 4-9, 13-18 entry H          line    30 file /Users/moseschung/miniconda3/envs/psi4/share/psi4/basis/aug-cc-pvtz-ri.gbs 

	 --------------------------------------------------------
	                          DF-MP2                         
	      2nd-Order Density-Fitted Moller-Plesset Theory     
	              RMP2 Wavefunction,  10 Threads             
	                                                         
	        Rob Parrish, Justin Turney, Andy Simmonett,      
	           Ed Hohenstein, and C. David Sherrill          
	 --------------------------------------------------------

   => Auxiliary Basis Set <=

  Basis Set: (AUG-CC-PVTZ AUX)
    Blend: AUG-CC-PVTZ-RI
    Number of shells: 336
    Number of basis functions: 1188
    Number of Cartesian functions: 1476
    Spherical Harmonics?: true
    Max angular momentum: 4

	 --------------------------------------------------------
	                 NBF =   552, NAUX =  1188
	 --------------------------------------------------------
	   CLASS    FOCC     OCC    AOCC    AVIR     VIR    FVIR
	   PAIRS       0      13      13     539     539       0
	 --------------------------------------------------------

	-----------------------------------------------------------
	 ==================> DF-MP2 Energies <==================== 
	-----------------------------------------------------------
	 Reference Energy          =    -154.1451002346579457 [Eh]
	 Singles Energy            =      -0.0000000000000000 [Eh]
	 Same-Spin Energy          =      -0.1481872879300182 [Eh]
	 Opposite-Spin Energy      =      -0.5186673598447379 [Eh]
	 Correlation Energy        =      -0.6668546477747561 [Eh]
	 Total Energy              =    -154.8119548824327012 [Eh]
	-----------------------------------------------------------
	 ================> DF-SCS-MP2 Energies <================== 
	-----------------------------------------------------------
	 SCS Same-Spin Scale       =       0.3333333333333333 [-]
	 SCS Opposite-Spin Scale   =       1.2000000000000000 [-]
	 SCS Same-Spin Energy      =      -0.0493957626433394 [Eh]
	 SCS Opposite-Spin Energy  =      -0.6224008318136854 [Eh]
	 SCS Correlation Energy    =      -0.6717965944570248 [Eh]
	 SCS Total Energy          =    -154.8168968291149667 [Eh]
	-----------------------------------------------------------


*** tstop() called on Moses-MBP.lan at Thu Feb 27 17:34:13 2025
Module time:
	user time   =      20.02 seconds =       0.33 minutes
	system time =       2.23 seconds =       0.04 minutes
	total time  =          4 seconds =       0.07 minutes
Total time:
	user time   =      91.32 seconds =       1.52 minutes
	system time =       8.70 seconds =       0.14 minutes
	total time  =         14 seconds =       0.23 minutes

    Psi4 stopped on: Thursday, 27 February 2025 05:34PM
    Psi4 wall time for execution: 0:00:13.26


    -----------------------------------------------------------------------
          Psi4: An Open-Source Ab Initio Electronic Structure Package
                               Psi4 1.9.1 release

                         Git: Rev {} zzzzzzz 


    D. G. A. Smith, L. A. Burns, A. C. Simmonett, R. M. Parrish,
    M. C. Schieber, R. Galvelis, P. Kraus, H. Kruse, R. Di Remigio,
    A. Alenaizan, A. M. James, S. Lehtola, J. P. Misiewicz, M. Scheurer,
    R. A. Shaw, J. B. Schriber, Y. Xie, Z. L. Glick, D. A. Sirianni,
    J. S. O'Brien, J. M. Waldrop, A. Kumar, E. G. Hohenstein,
    B. P. Pritchard, B. R. Brooks, H. F. Schaefer III, A. Yu. Sokolov,
    K. Patkowski, A. E. DePrince III, U. Bozkaya, R. A. King,
    F. A. Evangelista, J. M. Turney, T. D. Crawford, C. D. Sherrill,
    J. Chem. Phys. 152(18) 184108 (2020). https://doi.org/10.1063/5.0006002

                            Additional Code Authors
    E. T. Seidl, C. L. Janssen, E. F. Valeev, M. L. Leininger,
    J. F. Gonthier, R. M. Richard, H. R. McAlexander, M. Saitow, X. Wang,
    P. Verma, M. H. Lechner, A. Jiang, S. Behnle, A. G. Heide,
    M. F. Herbst, and D. L. Poole

             Previous Authors, Complete List of Code Contributors,
                       and Citations for Specific Modules
    https://github.com/psi4/psi4/blob/master/codemeta.json
    https://github.com/psi4/psi4/graphs/contributors
    http://psicode.org/psi4manual/master/introduction.html#citing-psifour

    -----------------------------------------------------------------------


    Psi4 started on: Thursday, 27 February 2025 05:33PM

    Process ID: 31177
    Host:       Moses-MBP.lan
    PSIDATADIR: /Users/moseschung/miniconda3/envs/psi4/share/psi4
    Memory:     9.3 GiB
    Threads:    10
    
  ==> Input QCSchema <==

--------------------------------------------------------------------------
{'driver': 'energy',
 'extras': {'psiapi': True, 'wfn_qcvars_only': True},
 'id': None,
 'keywords': {'SCF_TYPE': 'DF', 'function_kwargs': {}},
 'model': {'basis': 'aug-cc-pvtz', 'method': 'mp2'},
 'molecule': {'atom_labels': ['', '', '', '', '', '', '', '', '', '', '', '', '', '', '', '', '', ''],
              'atomic_numbers': [6, 6, 8, 1, 1, 1, 1, 1, 1, 6, 6, 8, 1, 1, 1, 1, 1, 1],
              'extras': {},
              'fix_com': True,
              'fix_orientation': True,
              'fix_symmetry': 'c1',
              'fragment_charges': [0.0, 0.0],
              'fragment_multiplicities': [1, 1],
              'fragments': [[0, 1, 2, 3, 4, 5, 6, 7, 8], [9, 10, 11, 12, 13, 14, 15, 16, 17]],
              'geometry': [3.1290293055204517, -2.2142809183268337, 0.9629364033927927, 3.393664662403441,
                           -0.1760185399557694, -0.9990717463637974, 3.786491480732987, 2.1267336863866233,
                           0.28300916400081527, 3.9149267168497275, 3.468783165616515, -0.9287852728535189,
                           2.762488577596024, -4.046610392176131, 0.08685937163054361, 1.5848736171728457,
                           -1.766929832099453, 2.2653961202943425, 4.847192865226341, -2.369421764048545,
                           2.0922669715843982, 1.6820225475565074, -0.08903444640094557, -2.1773122061345025,
                           4.9829470106269795, -0.607514823990559, -2.2642452770839383, -2.941213205363449,
                           2.3670482680349703, 0.16623920725652516, -4.301370040327478, -0.11764112048812618,
                           0.49625530862810385, -3.2165349634859024, -2.090399922172446, -0.9315745086146947,
                           -1.5891878619172661, -2.4807795451695243, -0.22412718765767478, -3.907535997973062,
                           3.87613441894633, 1.1911321713985783, -2.8730470045659344, 2.882147925586139,
                           -1.8323049074096665, -0.9988525381332441, 2.2726186535458424, 0.8713678342576082,
                           -6.254247033445855, 0.04029463017313727, -0.15914328565543098, -4.391906818998162,
                           -0.6250061290077966, 2.50926338705855],
              'mass_numbers': [12, 12, 16, 1, 1, 1, 1, 1, 1, 12, 12, 16, 1, 1, 1, 1, 1, 1],
              'masses': [12.0, 12.0, 15.99491461957, 1.00782503223, 1.00782503223, 1.00782503223, 1.00782503223,
                         1.00782503223, 1.00782503223, 12.0, 12.0, 15.99491461957, 1.00782503223, 1.00782503223,
                         1.00782503223, 1.00782503223, 1.00782503223, 1.00782503223],
              'molecular_charge': 0.0,
              'molecular_multiplicity': 1,
              'name': 'dimer',
              'provenance': {'creator': 'QCElemental',
                             'routine': 'qcelemental.molparse.from_string',
                             'version': '0.29.0'},
              'real': [True, True, True, True, True, True, True, True, True, False, False, False, False, False, False,
                       False, False, False],
              'schema_name': 'qcschema_molecule',
              'schema_version': 2,
              'symbols': ['C', 'C', 'O', 'H', 'H', 'H', 'H', 'H', 'H', 'C', 'C', 'O', 'H', 'H', 'H', 'H', 'H', 'H'],
              'validated': True},
 'protocols': {'stdout': True},
 'provenance': {'creator': 'QCElemental', 'routine': 'qcelemental.models.results', 'version': '0.29.0'},
 'schema_name': 'qcschema_input',
 'schema_version': 1}
--------------------------------------------------------------------------

Scratch directory: /tmp/
   => Libint2 <=

    Primary   basis highest AM E, G, H:  6, 6, 3
    Auxiliary basis highest AM E, G, H:  7, 7, 4
    Onebody   basis highest AM E, G, H:  -, -, -
    Solid Harmonics ordering:            Gaussian

*** tstart() called on Moses-MBP.lan
*** at Thu Feb 27 17:34:13 2025

   => Loading Basis Set <=

    Name: AUG-CC-PVTZ
    Role: ORBITAL
    Keyword: BASIS
    atoms 1-2, 10-11 entry C          line   239 file /Users/moseschung/miniconda3/envs/psi4/share/psi4/basis/aug-cc-pvtz.gbs 
    atoms 3, 12      entry O          line   331 file /Users/moseschung/miniconda3/envs/psi4/share/psi4/basis/aug-cc-pvtz.gbs 
    atoms 4-9, 13-18 entry H          line    40 file /Users/moseschung/miniconda3/envs/psi4/share/psi4/basis/aug-cc-pvtz.gbs 


         ---------------------------------------------------------
                                   SCF
               by Justin Turney, Rob Parrish, Andy Simmonett
                          and Daniel G. A. Smith
                              RHF Reference
                       10 Threads,   9536 MiB Core
         ---------------------------------------------------------

  ==> Geometry <==

    Molecular point group: c1
    Full point group: C1

    Geometry (in Bohr), charge = 0, multiplicity = 1:

       Center              X                  Y                   Z               Mass       
    ------------   -----------------  -----------------  -----------------  -----------------
         C            3.129029305520    -2.214280918327     0.962936403393    12.000000000000
         C            3.393664662403    -0.176018539956    -0.999071746364    12.000000000000
         O            3.786491480733     2.126733686387     0.283009164001    15.994914619570
         H            3.914926716850     3.468783165617    -0.928785272854     1.007825032230
         H            2.762488577596    -4.046610392176     0.086859371631     1.007825032230
         H            1.584873617173    -1.766929832099     2.265396120294     1.007825032230
         H            4.847192865226    -2.369421764049     2.092266971584     1.007825032230
         H            1.682022547557    -0.089034446401    -2.177312206135     1.007825032230
         H            4.982947010627    -0.607514823991    -2.264245277084     1.007825032230
      Gh(C)          -2.941213205363     2.367048268035     0.166239207257    12.000000000000
      Gh(C)          -4.301370040327    -0.117641120488     0.496255308628    12.000000000000
      Gh(O)          -3.216534963486    -2.090399922172    -0.931574508615    15.994914619570
      Gh(H)          -1.589187861917    -2.480779545170    -0.224127187658     1.007825032230
      Gh(H)          -3.907535997973     3.876134418946     1.191132171399     1.007825032230
      Gh(H)          -2.873047004566     2.882147925586    -1.832304907410     1.007825032230
      Gh(H)          -0.998852538133     2.272618653546     0.871367834258     1.007825032230
      Gh(H)          -6.254247033446     0.040294630173    -0.159143285655     1.007825032230
      Gh(H)          -4.391906818998    -0.625006129008     2.509263387059     1.007825032230

  Running in c1 symmetry.

  Rotational constants: A =      0.14531  B =      0.04956  C =      0.04061 [cm^-1]
  Rotational constants: A =   4356.24599  B =   1485.73428  C =   1217.58071 [MHz]
  Nuclear repulsion =   82.285151684412043

  Charge       = 0
  Multiplicity = 1
  Electrons    = 26
  Nalpha       = 13
  Nbeta        = 13

  ==> Algorithm <==

  SCF Algorithm Type is DF.
  DIIS enabled.
  MOM disabled.
  Fractional occupation disabled.
  Guess Type is SAD.
  Energy threshold   = 1.00e-08
  Density threshold  = 1.00e-08
  Integral threshold = 1.00e-12

  ==> Primary Basis <==

  Basis Set: AUG-CC-PVTZ
    Blend: AUG-CC-PVTZ
    Number of shells: 192
    Number of basis functions: 552
    Number of Cartesian functions: 630
    Spherical Harmonics?: true
    Max angular momentum: 3

   => Loading Basis Set <=

    Name: (AUG-CC-PVTZ AUX)
    Role: JKFIT
    Keyword: DF_BASIS_SCF
    atoms 1-2, 10-11 entry C          line   162 file /Users/moseschung/miniconda3/envs/psi4/share/psi4/basis/aug-cc-pvtz-jkfit.gbs 
    atoms 3, 12      entry O          line   286 file /Users/moseschung/miniconda3/envs/psi4/share/psi4/basis/aug-cc-pvtz-jkfit.gbs 
    atoms 4-9, 13-18 entry H          line    70 file /Users/moseschung/miniconda3/envs/psi4/share/psi4/basis/aug-cc-pvtz-jkfit.gbs 

  ==> Integral Setup <==

  DFHelper Memory: AOs need 2.643 GiB; user supplied 6.985 GiB. 
  Using in-core AOs.

  ==> MemDFJK: Density-Fitted J/K Matrices <==

    J tasked:                   Yes
    K tasked:                   Yes
    wK tasked:                   No
    OpenMP threads:              10
    Memory [MiB]:              7152
    Algorithm:                 Core
    Schwarz Cutoff:           1E-12
    Mask sparsity (%):       4.5310
    Fitting Condition:        1E-10

   => Auxiliary Basis Set <=

  Basis Set: (AUG-CC-PVTZ AUX)
    Blend: AUG-CC-PVTZ-JKFIT
    Number of shells: 348
    Number of basis functions: 1176
    Number of Cartesian functions: 1446
    Spherical Harmonics?: true
    Max angular momentum: 4

  Minimum eigenvalue in the overlap matrix is 5.0543338922E-06.
  Reciprocal condition number of the overlap matrix is 2.5965195304E-07.
    Using symmetric orthogonalization.

  ==> Pre-Iterations <==

  SCF Guess: Superposition of Atomic Densities via on-the-fly atomic UHF (no occupation information).

   -------------------------
    Irrep   Nso     Nmo    
   -------------------------
     A        552     552 
   -------------------------
    Total     552     552
   -------------------------

  ==> Iterations <==

                           Total Energy        Delta E     RMS |[F,P]|

   @DF-RHF iter SAD:  -153.44928356967429   -1.53449e+02   0.00000e+00 
   @DF-RHF iter   1:  -153.99867434904655   -5.49391e-01   9.60498e-04 DIIS/ADIIS
   @DF-RHF iter   2:  -154.11069439952976   -1.12020e-01   5.35298e-04 DIIS/ADIIS
   @DF-RHF iter   3:  -154.14376011765842   -3.30657e-02   8.43267e-05 DIIS
   @DF-RHF iter   4:  -154.14535506040414   -1.59494e-03   3.22895e-05 DIIS
   @DF-RHF iter   5:  -154.14553825686767   -1.83196e-04   5.76072e-06 DIIS
   @DF-RHF iter   6:  -154.14554785069717   -9.59383e-06   1.27122e-06 DIIS
   @DF-RHF iter   7:  -154.14554840433487   -5.53638e-07   3.90340e-07 DIIS
   @DF-RHF iter   8:  -154.14554844772579   -4.33909e-08   1.04883e-07 DIIS
   @DF-RHF iter   9:  -154.14554845188593   -4.16014e-09   2.52740e-08 DIIS
   @DF-RHF iter  10:  -154.14554845214892   -2.62986e-10   4.81420e-09 DIIS
  Energy and wave function converged.


  ==> Post-Iterations <==

    Orbital Energies [Eh]
    ---------------------

    Doubly Occupied:                                                      

       1A    -20.555979     2A    -11.273836     3A    -11.210900  
       4A     -1.362490     5A     -1.013258     6A     -0.833332  
       7A     -0.703939     8A     -0.645208     9A     -0.574227  
      10A     -0.533605    11A     -0.522421    12A     -0.489440  
      13A     -0.440176  

    Virtual:                                                              

      14A      0.022181    15A      0.032697    16A      0.035910  
      17A      0.038933    18A      0.051766    19A      0.052753  
      20A      0.054845    21A      0.059601    22A      0.070015  
      23A      0.076831    24A      0.083351    25A      0.086218  
      26A      0.097294    27A      0.108485    28A      0.113005  
      29A      0.117897    30A      0.121564    31A      0.122541  
      32A      0.129114    33A      0.141952    34A      0.143476  
      35A      0.145600    36A      0.156152    37A      0.159948  
      38A      0.163078    39A      0.169294    40A      0.175206  
      41A      0.181719    42A      0.193573    43A      0.196949  
      44A      0.206823    45A      0.215994    46A      0.233001  
      47A      0.239318    48A      0.249027    49A      0.257309  
      50A      0.263553    51A      0.274380    52A      0.276722  
      53A      0.286391    54A      0.290936    55A      0.294716  
      56A      0.299413    57A      0.307842    58A      0.313213  
      59A      0.320255    60A      0.324541    61A      0.328086  
      62A      0.330008    63A      0.333424    64A      0.343826  
      65A      0.347386    66A      0.351148    67A      0.356485  
      68A      0.365551    69A      0.371307    70A      0.376704  
      71A      0.378940    72A      0.381473    73A      0.392664  
      74A      0.397784    75A      0.407813    76A      0.411388  
      77A      0.415018    78A      0.421575    79A      0.430682  
      80A      0.441252    81A      0.444774    82A      0.453038  
      83A      0.460092    84A      0.463598    85A      0.467874  
      86A      0.470163    87A      0.477017    88A      0.479590  
      89A      0.484795    90A      0.490937    91A      0.497398  
      92A      0.501753    93A      0.508866    94A      0.517625  
      95A      0.521795    96A      0.528284    97A      0.531526  
      98A      0.547136    99A      0.548958   100A      0.563577  
     101A      0.565411   102A      0.568582   103A      0.580776  
     104A      0.582211   105A      0.588263   106A      0.592238  
     107A      0.602641   108A      0.609782   109A      0.620171  
     110A      0.624743   111A      0.634209   112A      0.641728  
     113A      0.647292   114A      0.658068   115A      0.661489  
     116A      0.662512   117A      0.664932   118A      0.676382  
     119A      0.689418   120A      0.692712   121A      0.717735  
     122A      0.732993   123A      0.737462   124A      0.744304  
     125A      0.756733   126A      0.763782   127A      0.779375  
     128A      0.792462   129A      0.802079   130A      0.807500  
     131A      0.814264   132A      0.823775   133A      0.844200  
     134A      0.852717   135A      0.861547   136A      0.866305  
     137A      0.879788   138A      0.885979   139A      0.899294  
     140A      0.902679   141A      0.914598   142A      0.928157  
     143A      0.938557   144A      0.949816   145A      0.956756  
     146A      0.963350   147A      0.968583   148A      0.976943  
     149A      0.988850   150A      0.994256   151A      1.005895  
     152A      1.012808   153A      1.018232   154A      1.024200  
     155A      1.025517   156A      1.032089   157A      1.033346  
     158A      1.043598   159A      1.048487   160A      1.057712  
     161A      1.064293   162A      1.068564   163A      1.074539  
     164A      1.086348   165A      1.092105   166A      1.102787  
     167A      1.106313   168A      1.112923   169A      1.120781  
     170A      1.124424   171A      1.135485   172A      1.140883  
     173A      1.142459   174A      1.151294   175A      1.158708  
     176A      1.161657   177A      1.171426   178A      1.176261  
     179A      1.190408   180A      1.191783   181A      1.202394  
     182A      1.210257   183A      1.211392   184A      1.220938  
     185A      1.227174   186A      1.244794   187A      1.250799  
     188A      1.265037   189A      1.270142   190A      1.273549  
     191A      1.278134   192A      1.290046   193A      1.297337  
     194A      1.301496   195A      1.303323   196A      1.315667  
     197A      1.327244   198A      1.339006   199A      1.345547  
     200A      1.354099   201A      1.358445   202A      1.373146  
     203A      1.378023   204A      1.382388   205A      1.398791  
     206A      1.404687   207A      1.411478   208A      1.425526  
     209A      1.429468   210A      1.456933   211A      1.468220  
     212A      1.469410   213A      1.482911   214A      1.489295  
     215A      1.492020   216A      1.496967   217A      1.513009  
     218A      1.520512   219A      1.529256   220A      1.545557  
     221A      1.557100   222A      1.560647   223A      1.576415  
     224A      1.579994   225A      1.592443   226A      1.598576  
     227A      1.611468   228A      1.621560   229A      1.625536  
     230A      1.654051   231A      1.657353   232A      1.667143  
     233A      1.675756   234A      1.689383   235A      1.693976  
     236A      1.702686   237A      1.713236   238A      1.723779  
     239A      1.743494   240A      1.752407   241A      1.755377  
     242A      1.766164   243A      1.778350   244A      1.788433  
     245A      1.797213   246A      1.803788   247A      1.808999  
     248A      1.820984   249A      1.837569   250A      1.841027  
     251A      1.854027   252A      1.862949   253A      1.877089  
     254A      1.884868   255A      1.902878   256A      1.918686  
     257A      1.948308   258A      1.955193   259A      1.970612  
     260A      1.980359   261A      1.992579   262A      2.004481  
     263A      2.007425   264A      2.016641   265A      2.025715  
     266A      2.038794   267A      2.057147   268A      2.067946  
     269A      2.070080   270A      2.088079   271A      2.093953  
     272A      2.104305   273A      2.112136   274A      2.122999  
     275A      2.132344   276A      2.138922   277A      2.154253  
     278A      2.159472   279A      2.182174   280A      2.194147  
     281A      2.202009   282A      2.214858   283A      2.239516  
     284A      2.248025   285A      2.262114   286A      2.275556  
     287A      2.285231   288A      2.302742   289A      2.305914  
     290A      2.322806   291A      2.351885   292A      2.360925  
     293A      2.373091   294A      2.401771   295A      2.435273  
     296A      2.446038   297A      2.448353   298A      2.477366  
     299A      2.481203   300A      2.503426   301A      2.504760  
     302A      2.528895   303A      2.573172   304A      2.580122  
     305A      2.582903   306A      2.618323   307A      2.632349  
     308A      2.668752   309A      2.702154   310A      2.718297  
     311A      2.734214   312A      2.749754   313A      2.760382  
     314A      2.773835   315A      2.800681   316A      2.817690  
     317A      2.836168   318A      2.850252   319A      2.885948  
     320A      2.901223   321A      2.912446   322A      2.923317  
     323A      2.953079   324A      2.970459   325A      2.975373  
     326A      2.991117   327A      3.015431   328A      3.039142  
     329A      3.065739   330A      3.114726   331A      3.141488  
     332A      3.147410   333A      3.165017   334A      3.197016  
     335A      3.231676   336A      3.260552   337A      3.328583  
     338A      3.409169   339A      3.413288   340A      3.445528  
     341A      3.485841   342A      3.503987   343A      3.516680  
     344A      3.546585   345A      3.583714   346A      3.593294  
     347A      3.615074   348A      3.631884   349A      3.637993  
     350A      3.673040   351A      3.675815   352A      3.723588  
     353A      3.744812   354A      3.752588   355A      3.806055  
     356A      3.814932   357A      3.829604   358A      3.840692  
     359A      3.850743   360A      3.876868   361A      3.916948  
     362A      3.955082   363A      3.976698   364A      4.008020  
     365A      4.013696   366A      4.019612   367A      4.034898  
     368A      4.047905   369A      4.054111   370A      4.097583  
     371A      4.108823   372A      4.129514   373A      4.139335  
     374A      4.147502   375A      4.156525   376A      4.186513  
     377A      4.198634   378A      4.218180   379A      4.224121  
     380A      4.257254   381A      4.261121   382A      4.277044  
     383A      4.286345   384A      4.299388   385A      4.318480  
     386A      4.340966   387A      4.354738   388A      4.355342  
     389A      4.386999   390A      4.394423   391A      4.413071  
     392A      4.428081   393A      4.469741   394A      4.479987  
     395A      4.499141   396A      4.516145   397A      4.526921  
     398A      4.534950   399A      4.553479   400A      4.557576  
     401A      4.565817   402A      4.610842   403A      4.621672  
     404A      4.642909   405A      4.659828   406A      4.666750  
     407A      4.693967   408A      4.702210   409A      4.702794  
     410A      4.721570   411A      4.727176   412A      4.742187  
     413A      4.775563   414A      4.794298   415A      4.815357  
     416A      4.837574   417A      4.854624   418A      4.859629  
     419A      4.869315   420A      4.895573   421A      4.908186  
     422A      4.915327   423A      4.936818   424A      4.948088  
     425A      4.970567   426A      4.984208   427A      5.013254  
     428A      5.022881   429A      5.047119   430A      5.063705  
     431A      5.067275   432A      5.084144   433A      5.089909  
     434A      5.119977   435A      5.137957   436A      5.145779  
     437A      5.172326   438A      5.174226   439A      5.191232  
     440A      5.201669   441A      5.245004   442A      5.259434  
     443A      5.273968   444A      5.282601   445A      5.302866  
     446A      5.340234   447A      5.347381   448A      5.373458  
     449A      5.383455   450A      5.397851   451A      5.411793  
     452A      5.424158   453A      5.433159   454A      5.448920  
     455A      5.491559   456A      5.509357   457A      5.537161  
     458A      5.546821   459A      5.558473   460A      5.591050  
     461A      5.600360   462A      5.604575   463A      5.633411  
     464A      5.649558   465A      5.657888   466A      5.688487  
     467A      5.703938   468A      5.709047   469A      5.755669  
     470A      5.769546   471A      5.793861   472A      5.811089  
     473A      5.820443   474A      5.839386   475A      5.850248  
     476A      5.881000   477A      5.896155   478A      5.969886  
     479A      5.998843   480A      6.042610   481A      6.087976  
     482A      6.110394   483A      6.124622   484A      6.144108  
     485A      6.174171   486A      6.183397   487A      6.254959  
     488A      6.282472   489A      6.298311   490A      6.311890  
     491A      6.330090   492A      6.380744   493A      6.463425  
     494A      6.476089   495A      6.481004   496A      6.735433  
     497A      6.776271   498A      6.808711   499A      6.827623  
     500A      6.887230   501A      6.918266   502A      6.985149  
     503A      7.001871   504A      7.004307   505A      7.059572  
     506A      7.116191   507A      7.162190   508A      7.180245  
     509A      7.246715   510A      7.372271   511A      7.377059  
     512A      7.405931   513A      7.550536   514A      7.565931  
     515A      7.638655   516A      7.789703   517A      7.810046  
     518A      7.844213   519A      7.864974   520A      7.896020  
     521A      7.915771   522A      7.950053   523A      7.994941  
     524A      8.037761   525A      8.154362   526A      8.223260  
     527A      8.294596   528A      8.335999   529A      8.363258  
     530A      8.378619   531A      8.433099   532A      8.624817  
     533A      8.639145   534A      8.952637   535A      9.036728  
     536A      9.997105   537A     10.096637   538A     10.303918  
     539A     10.452386   540A     10.689748   541A     10.706757  
     542A     11.075392   543A     12.072882   544A     12.403080  
     545A     13.296174   546A     14.346342   547A     16.359019  
     548A     18.120267   549A     18.862781   550A     52.937097  
     551A     54.685325   552A     67.527386  

    Final Occupation by Irrep:
              A 
    DOCC [    13 ]
    NA   [    13 ]
    NB   [    13 ]

  @DF-RHF Final Energy:  -154.14554845214892

   => Energetics <=

    Nuclear Repulsion Energy =             82.2851516844120425
    One-Electron Energy =                -372.5437770262921049
    Two-Electron Energy =                 136.1130768897311611
    Total Energy =                       -154.1455484521489154

Computation Completed


Properties will be evaluated at   0.000000,   0.000000,   0.000000 [a0]

Properties computed using the SCF density matrix


 Multipole Moments:

 ------------------------------------------------------------------------------------
     Multipole            Electronic (a.u.)      Nuclear  (a.u.)        Total (a.u.)
 ------------------------------------------------------------------------------------

 L = 1.  Multiply by 2.5417464519 to convert [e a0] to [Debye]
 Dipole X            :        -89.2464290           89.2025470           -0.0438820
 Dipole Y            :          2.6614245           -2.7386554           -0.0772308
 Dipole Z            :         -1.7700307            1.1214410           -0.6485897
 Magnitude           :                                                    0.6546441

 ------------------------------------------------------------------------------------

*** tstop() called on Moses-MBP.lan at Thu Feb 27 17:34:22 2025
Module time:
	user time   =      72.69 seconds =       1.21 minutes
	system time =       6.77 seconds =       0.11 minutes
	total time  =          9 seconds =       0.15 minutes
Total time:
	user time   =     164.31 seconds =       2.74 minutes
	system time =      15.55 seconds =       0.26 minutes
	total time  =         23 seconds =       0.38 minutes

*** tstart() called on Moses-MBP.lan
*** at Thu Feb 27 17:34:22 2025


  //>>>>>>>>>>>>>>>>>>>>>>>>>>>>>>>>>>>//
  //               DFMP2               //
  //<<<<<<<<<<<<<<<<<<<<<<<<<<<<<<<<<<<//

   => Loading Basis Set <=

    Name: (AUG-CC-PVTZ AUX)
    Role: RIFIT
    Keyword: DF_BASIS_MP2
    atoms 1-2, 10-11 entry C          line   148 file /Users/moseschung/miniconda3/envs/psi4/share/psi4/basis/aug-cc-pvtz-ri.gbs 
    atoms 3, 12      entry O          line   264 file /Users/moseschung/miniconda3/envs/psi4/share/psi4/basis/aug-cc-pvtz-ri.gbs 
    atoms 4-9, 13-18 entry H          line    30 file /Users/moseschung/miniconda3/envs/psi4/share/psi4/basis/aug-cc-pvtz-ri.gbs 

	 --------------------------------------------------------
	                          DF-MP2                         
	      2nd-Order Density-Fitted Moller-Plesset Theory     
	              RMP2 Wavefunction,  10 Threads             
	                                                         
	        Rob Parrish, Justin Turney, Andy Simmonett,      
	           Ed Hohenstein, and C. David Sherrill          
	 --------------------------------------------------------

   => Auxiliary Basis Set <=

  Basis Set: (AUG-CC-PVTZ AUX)
    Blend: AUG-CC-PVTZ-RI
    Number of shells: 336
    Number of basis functions: 1188
    Number of Cartesian functions: 1476
    Spherical Harmonics?: true
    Max angular momentum: 4

	 --------------------------------------------------------
	                 NBF =   552, NAUX =  1188
	 --------------------------------------------------------
	   CLASS    FOCC     OCC    AOCC    AVIR     VIR    FVIR
	   PAIRS       0      13      13     539     539       0
	 --------------------------------------------------------

	-----------------------------------------------------------
	 ==================> DF-MP2 Energies <==================== 
	-----------------------------------------------------------
	 Reference Energy          =    -154.1455484521489154 [Eh]
	 Singles Energy            =      -0.0000000000000000 [Eh]
	 Same-Spin Energy          =      -0.1481678711054815 [Eh]
	 Opposite-Spin Energy      =      -0.5186006213969644 [Eh]
	 Correlation Energy        =      -0.6667684925024460 [Eh]
	 Total Energy              =    -154.8123169446513714 [Eh]
	-----------------------------------------------------------
	 ================> DF-SCS-MP2 Energies <================== 
	-----------------------------------------------------------
	 SCS Same-Spin Scale       =       0.3333333333333333 [-]
	 SCS Opposite-Spin Scale   =       1.2000000000000000 [-]
	 SCS Same-Spin Energy      =      -0.0493892903684938 [Eh]
	 SCS Opposite-Spin Energy  =      -0.6223207456763572 [Eh]
	 SCS Correlation Energy    =      -0.6717100360448510 [Eh]
	 SCS Total Energy          =    -154.8172584881937723 [Eh]
	-----------------------------------------------------------


*** tstop() called on Moses-MBP.lan at Thu Feb 27 17:34:26 2025
Module time:
	user time   =      20.17 seconds =       0.34 minutes
	system time =       2.09 seconds =       0.03 minutes
	total time  =          4 seconds =       0.07 minutes
Total time:
	user time   =     184.49 seconds =       3.07 minutes
	system time =      17.65 seconds =       0.29 minutes
	total time  =         27 seconds =       0.45 minutes

    Psi4 stopped on: Thursday, 27 February 2025 05:34PM
    Psi4 wall time for execution: 0:00:13.26


    -----------------------------------------------------------------------
          Psi4: An Open-Source Ab Initio Electronic Structure Package
                               Psi4 1.9.1 release

                         Git: Rev {} zzzzzzz 


    D. G. A. Smith, L. A. Burns, A. C. Simmonett, R. M. Parrish,
    M. C. Schieber, R. Galvelis, P. Kraus, H. Kruse, R. Di Remigio,
    A. Alenaizan, A. M. James, S. Lehtola, J. P. Misiewicz, M. Scheurer,
    R. A. Shaw, J. B. Schriber, Y. Xie, Z. L. Glick, D. A. Sirianni,
    J. S. O'Brien, J. M. Waldrop, A. Kumar, E. G. Hohenstein,
    B. P. Pritchard, B. R. Brooks, H. F. Schaefer III, A. Yu. Sokolov,
    K. Patkowski, A. E. DePrince III, U. Bozkaya, R. A. King,
    F. A. Evangelista, J. M. Turney, T. D. Crawford, C. D. Sherrill,
    J. Chem. Phys. 152(18) 184108 (2020). https://doi.org/10.1063/5.0006002

                            Additional Code Authors
    E. T. Seidl, C. L. Janssen, E. F. Valeev, M. L. Leininger,
    J. F. Gonthier, R. M. Richard, H. R. McAlexander, M. Saitow, X. Wang,
    P. Verma, M. H. Lechner, A. Jiang, S. Behnle, A. G. Heide,
    M. F. Herbst, and D. L. Poole

             Previous Authors, Complete List of Code Contributors,
                       and Citations for Specific Modules
    https://github.com/psi4/psi4/blob/master/codemeta.json
    https://github.com/psi4/psi4/graphs/contributors
    http://psicode.org/psi4manual/master/introduction.html#citing-psifour

    -----------------------------------------------------------------------


    Psi4 started on: Thursday, 27 February 2025 05:33PM

    Process ID: 31177
    Host:       Moses-MBP.lan
    PSIDATADIR: /Users/moseschung/miniconda3/envs/psi4/share/psi4
    Memory:     9.3 GiB
    Threads:    10
    
  ==> Input QCSchema <==

--------------------------------------------------------------------------
{'driver': 'energy',
 'extras': {'psiapi': True, 'wfn_qcvars_only': True},
 'id': None,
 'keywords': {'SCF_TYPE': 'DF', 'function_kwargs': {}},
 'model': {'basis': 'aug-cc-pvtz', 'method': 'mp2'},
 'molecule': {'atom_labels': ['', '', '', '', '', '', '', '', '', '', '', '', '', '', '', '', '', ''],
              'atomic_numbers': [6, 6, 8, 1, 1, 1, 1, 1, 1, 6, 6, 8, 1, 1, 1, 1, 1, 1],
              'extras': {},
              'fix_com': True,
              'fix_orientation': True,
              'fix_symmetry': 'c1',
              'fragment_charges': [0.0, 0.0],
              'fragment_multiplicities': [1, 1],
              'fragments': [[0, 1, 2, 3, 4, 5, 6, 7, 8], [9, 10, 11, 12, 13, 14, 15, 16, 17]],
              'geometry': [3.1290293055204517, -2.2142809183268337, 0.9629364033927927, 3.393664662403441,
                           -0.1760185399557694, -0.9990717463637974, 3.786491480732987, 2.1267336863866233,
                           0.28300916400081527, 3.9149267168497275, 3.468783165616515, -0.9287852728535189,
                           2.762488577596024, -4.046610392176131, 0.08685937163054361, 1.5848736171728457,
                           -1.766929832099453, 2.2653961202943425, 4.847192865226341, -2.369421764048545,
                           2.0922669715843982, 1.6820225475565074, -0.08903444640094557, -2.1773122061345025,
                           4.9829470106269795, -0.607514823990559, -2.2642452770839383, -2.941213205363449,
                           2.3670482680349703, 0.16623920725652516, -4.301370040327478, -0.11764112048812618,
                           0.49625530862810385, -3.2165349634859024, -2.090399922172446, -0.9315745086146947,
                           -1.5891878619172661, -2.4807795451695243, -0.22412718765767478, -3.907535997973062,
                           3.87613441894633, 1.1911321713985783, -2.8730470045659344, 2.882147925586139,
                           -1.8323049074096665, -0.9988525381332441, 2.2726186535458424, 0.8713678342576082,
                           -6.254247033445855, 0.04029463017313727, -0.15914328565543098, -4.391906818998162,
                           -0.6250061290077966, 2.50926338705855],
              'mass_numbers': [12, 12, 16, 1, 1, 1, 1, 1, 1, 12, 12, 16, 1, 1, 1, 1, 1, 1],
              'masses': [12.0, 12.0, 15.99491461957, 1.00782503223, 1.00782503223, 1.00782503223, 1.00782503223,
                         1.00782503223, 1.00782503223, 12.0, 12.0, 15.99491461957, 1.00782503223, 1.00782503223,
                         1.00782503223, 1.00782503223, 1.00782503223, 1.00782503223],
              'molecular_charge': 0.0,
              'molecular_multiplicity': 1,
              'name': 'dimer',
              'provenance': {'creator': 'QCElemental',
                             'routine': 'qcelemental.molparse.from_string',
                             'version': '0.29.0'},
              'real': [True, True, True, True, True, True, True, True, True, True, True, True, True, True, True, True,
                       True, True],
              'schema_name': 'qcschema_molecule',
              'schema_version': 2,
              'symbols': ['C', 'C', 'O', 'H', 'H', 'H', 'H', 'H', 'H', 'C', 'C', 'O', 'H', 'H', 'H', 'H', 'H', 'H'],
              'validated': True},
 'protocols': {'stdout': True},
 'provenance': {'creator': 'QCElemental', 'routine': 'qcelemental.models.results', 'version': '0.29.0'},
 'schema_name': 'qcschema_input',
 'schema_version': 1}
--------------------------------------------------------------------------

Scratch directory: /tmp/
   => Libint2 <=

    Primary   basis highest AM E, G, H:  6, 6, 3
    Auxiliary basis highest AM E, G, H:  7, 7, 4
    Onebody   basis highest AM E, G, H:  -, -, -
    Solid Harmonics ordering:            Gaussian

*** tstart() called on Moses-MBP.lan
*** at Thu Feb 27 17:34:26 2025

   => Loading Basis Set <=

    Name: AUG-CC-PVTZ
    Role: ORBITAL
    Keyword: BASIS
    atoms 1-2, 10-11 entry C          line   239 file /Users/moseschung/miniconda3/envs/psi4/share/psi4/basis/aug-cc-pvtz.gbs 
    atoms 3, 12      entry O          line   331 file /Users/moseschung/miniconda3/envs/psi4/share/psi4/basis/aug-cc-pvtz.gbs 
    atoms 4-9, 13-18 entry H          line    40 file /Users/moseschung/miniconda3/envs/psi4/share/psi4/basis/aug-cc-pvtz.gbs 


         ---------------------------------------------------------
                                   SCF
               by Justin Turney, Rob Parrish, Andy Simmonett
                          and Daniel G. A. Smith
                              RHF Reference
                       10 Threads,   9536 MiB Core
         ---------------------------------------------------------

  ==> Geometry <==

    Molecular point group: c1
    Full point group: C1

    Geometry (in Bohr), charge = 0, multiplicity = 1:

       Center              X                  Y                   Z               Mass       
    ------------   -----------------  -----------------  -----------------  -----------------
         C            3.129029305520    -2.214280918327     0.962936403393    12.000000000000
         C            3.393664662403    -0.176018539956    -0.999071746364    12.000000000000
         O            3.786491480733     2.126733686387     0.283009164001    15.994914619570
         H            3.914926716850     3.468783165617    -0.928785272854     1.007825032230
         H            2.762488577596    -4.046610392176     0.086859371631     1.007825032230
         H            1.584873617173    -1.766929832099     2.265396120294     1.007825032230
         H            4.847192865226    -2.369421764049     2.092266971584     1.007825032230
         H            1.682022547557    -0.089034446401    -2.177312206135     1.007825032230
         H            4.982947010627    -0.607514823991    -2.264245277084     1.007825032230
         C           -2.941213205363     2.367048268035     0.166239207257    12.000000000000
         C           -4.301370040327    -0.117641120488     0.496255308628    12.000000000000
         O           -3.216534963486    -2.090399922172    -0.931574508615    15.994914619570
         H           -1.589187861917    -2.480779545170    -0.224127187658     1.007825032230
         H           -3.907535997973     3.876134418946     1.191132171399     1.007825032230
         H           -2.873047004566     2.882147925586    -1.832304907410     1.007825032230
         H           -0.998852538133     2.272618653546     0.871367834258     1.007825032230
         H           -6.254247033446     0.040294630173    -0.159143285655     1.007825032230
         H           -4.391906818998    -0.625006129008     2.509263387059     1.007825032230

  Running in c1 symmetry.

  Rotational constants: A =      0.14531  B =      0.04956  C =      0.04061 [cm^-1]
  Rotational constants: A =   4356.24599  B =   1485.73428  C =   1217.58071 [MHz]
  Nuclear repulsion =  256.008411303629885

  Charge       = 0
  Multiplicity = 1
  Electrons    = 52
  Nalpha       = 26
  Nbeta        = 26

  ==> Algorithm <==

  SCF Algorithm Type is DF.
  DIIS enabled.
  MOM disabled.
  Fractional occupation disabled.
  Guess Type is SAD.
  Energy threshold   = 1.00e-08
  Density threshold  = 1.00e-08
  Integral threshold = 1.00e-12

  ==> Primary Basis <==

  Basis Set: AUG-CC-PVTZ
    Blend: AUG-CC-PVTZ
    Number of shells: 192
    Number of basis functions: 552
    Number of Cartesian functions: 630
    Spherical Harmonics?: true
    Max angular momentum: 3

   => Loading Basis Set <=

    Name: (AUG-CC-PVTZ AUX)
    Role: JKFIT
    Keyword: DF_BASIS_SCF
    atoms 1-2, 10-11 entry C          line   162 file /Users/moseschung/miniconda3/envs/psi4/share/psi4/basis/aug-cc-pvtz-jkfit.gbs 
    atoms 3, 12      entry O          line   286 file /Users/moseschung/miniconda3/envs/psi4/share/psi4/basis/aug-cc-pvtz-jkfit.gbs 
    atoms 4-9, 13-18 entry H          line    70 file /Users/moseschung/miniconda3/envs/psi4/share/psi4/basis/aug-cc-pvtz-jkfit.gbs 

  ==> Integral Setup <==

  DFHelper Memory: AOs need 2.643 GiB; user supplied 6.985 GiB. 
  Using in-core AOs.

  ==> MemDFJK: Density-Fitted J/K Matrices <==

    J tasked:                   Yes
    K tasked:                   Yes
    wK tasked:                   No
    OpenMP threads:              10
    Memory [MiB]:              7152
    Algorithm:                 Core
    Schwarz Cutoff:           1E-12
    Mask sparsity (%):       4.5310
    Fitting Condition:        1E-10

   => Auxiliary Basis Set <=

  Basis Set: (AUG-CC-PVTZ AUX)
    Blend: AUG-CC-PVTZ-JKFIT
    Number of shells: 348
    Number of basis functions: 1176
    Number of Cartesian functions: 1446
    Spherical Harmonics?: true
    Max angular momentum: 4

  Minimum eigenvalue in the overlap matrix is 5.0543338922E-06.
  Reciprocal condition number of the overlap matrix is 2.5965195304E-07.
    Using symmetric orthogonalization.

  ==> Pre-Iterations <==

  SCF Guess: Superposition of Atomic Densities via on-the-fly atomic UHF (no occupation information).

   -------------------------
    Irrep   Nso     Nmo    
   -------------------------
     A        552     552 
   -------------------------
    Total     552     552
   -------------------------

  ==> Iterations <==

                           Total Energy        Delta E     RMS |[F,P]|

   @DF-RHF iter SAD:  -307.10842983691640   -3.07108e+02   0.00000e+00 
   @DF-RHF iter   1:  -308.00858466170916   -9.00155e-01   1.31404e-03 DIIS/ADIIS
   @DF-RHF iter   2:  -308.22856878407248   -2.19984e-01   6.95873e-04 DIIS/ADIIS
   @DF-RHF iter   3:  -308.28433232605192   -5.57635e-02   1.20234e-04 DIIS/ADIIS
   @DF-RHF iter   4:  -308.28756101528836   -3.22869e-03   4.42132e-05 DIIS
   @DF-RHF iter   5:  -308.28791078207718   -3.49767e-04   8.71777e-06 DIIS
   @DF-RHF iter   6:  -308.28793171369466   -2.09316e-05   2.02635e-06 DIIS
   @DF-RHF iter   7:  -308.28793313007566   -1.41638e-06   5.87095e-07 DIIS
   @DF-RHF iter   8:  -308.28793323569812   -1.05622e-07   1.71194e-07 DIIS
   @DF-RHF iter   9:  -308.28793324628634   -1.05882e-08   4.34484e-08 DIIS
   @DF-RHF iter  10:  -308.28793324699632   -7.09974e-10   1.04272e-08 DIIS
   @DF-RHF iter  11:  -308.28793324702769   -3.13776e-11   3.56679e-09 DIIS
  Energy and wave function converged.


  ==> Post-Iterations <==

    Orbital Energies [Eh]
    ---------------------

    Doubly Occupied:                                                      

       1A    -20.563559     2A    -20.551956     3A    -11.280741  
       4A    -11.269696     5A    -11.224210     6A    -11.209370  
       7A     -1.370859     8A     -1.358840     9A     -1.025498  
      10A     -1.008766    11A     -0.844025    12A     -0.842415  
      13A     -0.712637    14A     -0.690094    15A     -0.656419  
      16A     -0.620835    17A     -0.600454    18A     -0.584168  
      19A     -0.546969    20A     -0.543454    21A     -0.535321  
      22A     -0.518624    23A     -0.498303    24A     -0.473645  
      25A     -0.449385    26A     -0.438633  

    Virtual:                                                              

      27A      0.027435    28A      0.035064    29A      0.036498  
      30A      0.041842    31A      0.052212    32A      0.052819  
      33A      0.055163    34A      0.061037    35A      0.073963  
      36A      0.079726    37A      0.084803    38A      0.086741  
      39A      0.108914    40A      0.114033    41A      0.119593  
      42A      0.127238    43A      0.127625    44A      0.129937  
      45A      0.139571    46A      0.145033    47A      0.147848  
      48A      0.152348    49A      0.159806    50A      0.160472  
      51A      0.164570    52A      0.175337    53A      0.178403  
      54A      0.186218    55A      0.203187    56A      0.208155  
      57A      0.214745    58A      0.226573    59A      0.232156  
      60A      0.245809    61A      0.249559    62A      0.254369  
      63A      0.264706    64A      0.279857    65A      0.287887  
      66A      0.290409    67A      0.297828    68A      0.299657  
      69A      0.307375    70A      0.310935    71A      0.314271  
      72A      0.318548    73A      0.322539    74A      0.324838  
      75A      0.334748    76A      0.338578    77A      0.349013  
      78A      0.351092    79A      0.351873    80A      0.362360  
      81A      0.369298    82A      0.371386    83A      0.374558  
      84A      0.383295    85A      0.386443    86A      0.390330  
      87A      0.399539    88A      0.407431    89A      0.409716  
      90A      0.411874    91A      0.425843    92A      0.427833  
      93A      0.436093    94A      0.441999    95A      0.450335  
      96A      0.455557    97A      0.456691    98A      0.461774  
      99A      0.468670   100A      0.470075   101A      0.472800  
     102A      0.480402   103A      0.487358   104A      0.495712  
     105A      0.497667   106A      0.501528   107A      0.513689  
     108A      0.516890   109A      0.525508   110A      0.528550  
     111A      0.535887   112A      0.547033   113A      0.550500  
     114A      0.551116   115A      0.555447   116A      0.565646  
     117A      0.573108   118A      0.577921   119A      0.580741  
     120A      0.586129   121A      0.593000   122A      0.603147  
     123A      0.615532   124A      0.617730   125A      0.619766  
     126A      0.626496   127A      0.636905   128A      0.643140  
     129A      0.658631   130A      0.663058   131A      0.680255  
     132A      0.695137   133A      0.717705   134A      0.720983  
     135A      0.725545   136A      0.747231   137A      0.757242  
     138A      0.760477   139A      0.777077   140A      0.786903  
     141A      0.794719   142A      0.803170   143A      0.812749  
     144A      0.819241   145A      0.833891   146A      0.838480  
     147A      0.844260   148A      0.850098   149A      0.855461  
     150A      0.869284   151A      0.875318   152A      0.880442  
     153A      0.882175   154A      0.888573   155A      0.897707  
     156A      0.905499   157A      0.917010   158A      0.922860  
     159A      0.929025   160A      0.933801   161A      0.937902  
     162A      0.947218   163A      0.949865   164A      0.964411  
     165A      0.974048   166A      0.984040   167A      0.989851  
     168A      0.995929   169A      1.004815   170A      1.012147  
     171A      1.016780   172A      1.021947   173A      1.027452  
     174A      1.031020   175A      1.032976   176A      1.042509  
     177A      1.058138   178A      1.063441   179A      1.069632  
     180A      1.074662   181A      1.083381   182A      1.091947  
     183A      1.099234   184A      1.107918   185A      1.115713  
     186A      1.127136   187A      1.129330   188A      1.140519  
     189A      1.143347   190A      1.155156   191A      1.160602  
     192A      1.163458   193A      1.164612   194A      1.168314  
     195A      1.175171   196A      1.188742   197A      1.199459  
     198A      1.204295   199A      1.205989   200A      1.216841  
     201A      1.225603   202A      1.229882   203A      1.246148  
     204A      1.247094   205A      1.259616   206A      1.274287  
     207A      1.288183   208A      1.297502   209A      1.302639  
     210A      1.311686   211A      1.318115   212A      1.321688  
     213A      1.335324   214A      1.342067   215A      1.355504  
     216A      1.358191   217A      1.368674   218A      1.374188  
     219A      1.388120   220A      1.398796   221A      1.413499  
     222A      1.416988   223A      1.425973   224A      1.442881  
     225A      1.454836   226A      1.463723   227A      1.469051  
     228A      1.472003   229A      1.487457   230A      1.507271  
     231A      1.515499   232A      1.517484   233A      1.529222  
     234A      1.540798   235A      1.551016   236A      1.567242  
     237A      1.574543   238A      1.584954   239A      1.606600  
     240A      1.609236   241A      1.619202   242A      1.634345  
     243A      1.636190   244A      1.647832   245A      1.663023  
     246A      1.665877   247A      1.671781   248A      1.674502  
     249A      1.680682   250A      1.690471   251A      1.700204  
     252A      1.707954   253A      1.712922   254A      1.719400  
     255A      1.730268   256A      1.737755   257A      1.740215  
     258A      1.756155   259A      1.766711   260A      1.774933  
     261A      1.784292   262A      1.794940   263A      1.803938  
     264A      1.817127   265A      1.831399   266A      1.836330  
     267A      1.845855   268A      1.847367   269A      1.870426  
     270A      1.892386   271A      1.897494   272A      1.907277  
     273A      1.920883   274A      1.926100   275A      1.934888  
     276A      1.951275   277A      1.953813   278A      1.975654  
     279A      1.984833   280A      1.994582   281A      1.999772  
     282A      2.006107   283A      2.017099   284A      2.028950  
     285A      2.041047   286A      2.066336   287A      2.074659  
     288A      2.097331   289A      2.107602   290A      2.113893  
     291A      2.115970   292A      2.135700   293A      2.142159  
     294A      2.156565   295A      2.160324   296A      2.181015  
     297A      2.181202   298A      2.196529   299A      2.241903  
     300A      2.249420   301A      2.256866   302A      2.266515  
     303A      2.280199   304A      2.302790   305A      2.316980  
     306A      2.333558   307A      2.335844   308A      2.346634  
     309A      2.386218   310A      2.402384   311A      2.427629  
     312A      2.436140   313A      2.450408   314A      2.469637  
     315A      2.482757   316A      2.516191   317A      2.527190  
     318A      2.565390   319A      2.585958   320A      2.620562  
     321A      2.627999   322A      2.646677   323A      2.689096  
     324A      2.707880   325A      2.720592   326A      2.743436  
     327A      2.770237   328A      2.822769   329A      2.849651  
     330A      2.868715   331A      2.884056   332A      2.908018  
     333A      2.921971   334A      2.925014   335A      2.945946  
     336A      2.961744   337A      2.972953   338A      3.004978  
     339A      3.029912   340A      3.047547   341A      3.057603  
     342A      3.096521   343A      3.134954   344A      3.139750  
     345A      3.184345   346A      3.205752   347A      3.222104  
     348A      3.266580   349A      3.307248   350A      3.369537  
     351A      3.385660   352A      3.416714   353A      3.453697  
     354A      3.474216   355A      3.497299   356A      3.517588  
     357A      3.532315   358A      3.565062   359A      3.574310  
     360A      3.588681   361A      3.616386   362A      3.634420  
     363A      3.651169   364A      3.659141   365A      3.678295  
     366A      3.680641   367A      3.691634   368A      3.710530  
     369A      3.731398   370A      3.735104   371A      3.760580  
     372A      3.765899   373A      3.783465   374A      3.797849  
     375A      3.799903   376A      3.828571   377A      3.830739  
     378A      3.848793   379A      3.860616   380A      3.875775  
     381A      3.887091   382A      3.907406   383A      3.920573  
     384A      3.948798   385A      3.965349   386A      3.977688  
     387A      3.987281   388A      3.997196   389A      4.007927  
     390A      4.027005   391A      4.031849   392A      4.040993  
     393A      4.055018   394A      4.075164   395A      4.085534  
     396A      4.098875   397A      4.109360   398A      4.119083  
     399A      4.144957   400A      4.150022   401A      4.166659  
     402A      4.179703   403A      4.187030   404A      4.210373  
     405A      4.212169   406A      4.230180   407A      4.250195  
     408A      4.269222   409A      4.289291   410A      4.298252  
     411A      4.319205   412A      4.328924   413A      4.344469  
     414A      4.364040   415A      4.372146   416A      4.378488  
     417A      4.385685   418A      4.395151   419A      4.419300  
     420A      4.442555   421A      4.488601   422A      4.497840  
     423A      4.512483   424A      4.537870   425A      4.543280  
     426A      4.553614   427A      4.577283   428A      4.592361  
     429A      4.609021   430A      4.611732   431A      4.628600  
     432A      4.643682   433A      4.683754   434A      4.705785  
     435A      4.717134   436A      4.727654   437A      4.749649  
     438A      4.763804   439A      4.776918   440A      4.808825  
     441A      4.831435   442A      4.837110   443A      4.847147  
     444A      4.868453   445A      4.882021   446A      4.900528  
     447A      4.918325   448A      4.944125   449A      4.950809  
     450A      4.960083   451A      4.997602   452A      5.003425  
     453A      5.020322   454A      5.041408   455A      5.047146  
     456A      5.066807   457A      5.072935   458A      5.096813  
     459A      5.100698   460A      5.119270   461A      5.141988  
     462A      5.152206   463A      5.181318   464A      5.187117  
     465A      5.209036   466A      5.214790   467A      5.259265  
     468A      5.272665   469A      5.290844   470A      5.313221  
     471A      5.339558   472A      5.349922   473A      5.362890  
     474A      5.374425   475A      5.396512   476A      5.415984  
     477A      5.438628   478A      5.458494   479A      5.488428  
     480A      5.504621   481A      5.520896   482A      5.539366  
     483A      5.565282   484A      5.587818   485A      5.598224  
     486A      5.604926   487A      5.626671   488A      5.650702  
     489A      5.688101   490A      5.701148   491A      5.723941  
     492A      5.743157   493A      5.769616   494A      5.781584  
     495A      5.813234   496A      5.839460   497A      5.845629  
     498A      5.871298   499A      6.009194   500A      6.025877  
     501A      6.074834   502A      6.098039   503A      6.115007  
     504A      6.161103   505A      6.177042   506A      6.202241  
     507A      6.237884   508A      6.256431   509A      6.284327  
     510A      6.299285   511A      6.305175   512A      6.330014  
     513A      6.414790   514A      6.456332   515A      6.717972  
     516A      6.733914   517A      6.782530   518A      6.795061  
     519A      6.813854   520A      6.870579   521A      6.889799  
     522A      6.914701   523A      6.984350   524A      7.004969  
     525A      7.013464   526A      7.020098   527A      7.186124  
     528A      7.194607   529A      7.368183   530A      7.394434  
     531A      7.418866   532A      7.446436   533A      7.543035  
     534A      7.550111   535A      7.579189   536A      7.581811  
     537A      7.632496   538A      7.660322   539A      7.843563  
     540A      7.890245   541A      7.980662   542A      8.025642  
     543A      8.280632   544A      8.299875   545A      8.603907  
     546A      8.631584   547A     16.348310   548A     16.766831  
     549A     17.838889   550A     18.109138   551A     18.663087  
     552A     18.937276  

    Final Occupation by Irrep:
              A 
    DOCC [    26 ]
    NA   [    26 ]
    NB   [    26 ]

  @DF-RHF Final Energy:  -308.28793324702769

   => Energetics <=

    Nuclear Repulsion Energy =            256.0084113036298845
    One-Electron Energy =                -927.7549360927762336
    Two-Electron Energy =                 363.4585915421187110
    Total Energy =                       -308.2879332470276950

Computation Completed


Properties will be evaluated at   0.000000,   0.000000,   0.000000 [a0]

Properties computed using the SCF density matrix


 Multipole Moments:

 ------------------------------------------------------------------------------------
     Multipole            Electronic (a.u.)      Nuclear  (a.u.)        Total (a.u.)
 ------------------------------------------------------------------------------------

 L = 1.  Multiply by 2.5417464519 to convert [e a0] to [Debye]
 Dipole X            :          0.3877440           -0.0000094            0.3877346
 Dipole Y            :          0.2976413           -0.0000019            0.2976394
 Dipole Z            :         -0.1076215           -0.0000000           -0.1076215
 Magnitude           :                                                    0.5005095

 ------------------------------------------------------------------------------------

*** tstop() called on Moses-MBP.lan at Thu Feb 27 17:34:38 2025
Module time:
	user time   =      89.46 seconds =       1.49 minutes
	system time =       7.84 seconds =       0.13 minutes
	total time  =         12 seconds =       0.20 minutes
Total time:
	user time   =     274.25 seconds =       4.57 minutes
	system time =      25.56 seconds =       0.43 minutes
	total time  =         39 seconds =       0.65 minutes

*** tstart() called on Moses-MBP.lan
*** at Thu Feb 27 17:34:38 2025


  //>>>>>>>>>>>>>>>>>>>>>>>>>>>>>>>>>>>//
  //               DFMP2               //
  //<<<<<<<<<<<<<<<<<<<<<<<<<<<<<<<<<<<//

   => Loading Basis Set <=

    Name: (AUG-CC-PVTZ AUX)
    Role: RIFIT
    Keyword: DF_BASIS_MP2
    atoms 1-2, 10-11 entry C          line   148 file /Users/moseschung/miniconda3/envs/psi4/share/psi4/basis/aug-cc-pvtz-ri.gbs 
    atoms 3, 12      entry O          line   264 file /Users/moseschung/miniconda3/envs/psi4/share/psi4/basis/aug-cc-pvtz-ri.gbs 
    atoms 4-9, 13-18 entry H          line    30 file /Users/moseschung/miniconda3/envs/psi4/share/psi4/basis/aug-cc-pvtz-ri.gbs 

	 --------------------------------------------------------
	                          DF-MP2                         
	      2nd-Order Density-Fitted Moller-Plesset Theory     
	              RMP2 Wavefunction,  10 Threads             
	                                                         
	        Rob Parrish, Justin Turney, Andy Simmonett,      
	           Ed Hohenstein, and C. David Sherrill          
	 --------------------------------------------------------

   => Auxiliary Basis Set <=

  Basis Set: (AUG-CC-PVTZ AUX)
    Blend: AUG-CC-PVTZ-RI
    Number of shells: 336
    Number of basis functions: 1188
    Number of Cartesian functions: 1476
    Spherical Harmonics?: true
    Max angular momentum: 4

	 --------------------------------------------------------
	                 NBF =   552, NAUX =  1188
	 --------------------------------------------------------
	   CLASS    FOCC     OCC    AOCC    AVIR     VIR    FVIR
	   PAIRS       0      26      26     526     526       0
	 --------------------------------------------------------

	-----------------------------------------------------------
	 ==================> DF-MP2 Energies <==================== 
	-----------------------------------------------------------
	 Reference Energy          =    -308.2879332470276950 [Eh]
	 Singles Energy            =      -0.0000000000000000 [Eh]
	 Same-Spin Energy          =      -0.2995258509102289 [Eh]
	 Opposite-Spin Energy      =      -1.0402572172347757 [Eh]
	 Correlation Energy        =      -1.3397830681450047 [Eh]
	 Total Energy              =    -309.6277163151726768 [Eh]
	-----------------------------------------------------------
	 ================> DF-SCS-MP2 Energies <================== 
	-----------------------------------------------------------
	 SCS Same-Spin Scale       =       0.3333333333333333 [-]
	 SCS Opposite-Spin Scale   =       1.2000000000000000 [-]
	 SCS Same-Spin Energy      =      -0.0998419503034096 [Eh]
	 SCS Opposite-Spin Energy  =      -1.2483086606817309 [Eh]
	 SCS Correlation Energy    =      -1.3481506109851404 [Eh]
	 SCS Total Energy          =    -309.6360838580128529 [Eh]
	-----------------------------------------------------------


*** tstop() called on Moses-MBP.lan at Thu Feb 27 17:34:43 2025
Module time:
	user time   =      32.04 seconds =       0.53 minutes
	system time =       2.86 seconds =       0.05 minutes
	total time  =          5 seconds =       0.08 minutes
Total time:
	user time   =     306.29 seconds =       5.10 minutes
	system time =      28.42 seconds =       0.47 minutes
	total time  =         44 seconds =       0.73 minutes

    Psi4 stopped on: Thursday, 27 February 2025 05:34PM
    Psi4 wall time for execution: 0:00:16.78


  //>>>>>>>>>>>>>>>>>>>>>>>>>>>>>>>>>>>//
  //          ManyBody Results         //
  //<<<<<<<<<<<<<<<<<<<<<<<<<<<<<<<<<<<//


   ==> N-Body: Counterpoise Corrected (CP) energies <==

        n-Body     Total Energy            Interaction Energy                          N-body Contribution to Interaction Energy
                   [Eh]                    [Eh]                  [kcal/mol]            [Eh]                  [kcal/mol]
             1  N/A                         0.000000000000        0.000000000000        0.000000000000        0.000000000000
  FULL/RTN   2  N/A                        -0.003444488089       -2.161448907931       -0.003444488089       -2.161448907931


    Psi4 stopped on: Thursday, 27 February 2025 05:34PM
    Psi4 wall time for execution: 0:00:45.00

*** Psi4 exiting successfully. Buy a developer a beer!
