
    -----------------------------------------------------------------------
          Psi4: An Open-Source Ab Initio Electronic Structure Package
                               Psi4 1.9.1 release

                         Git: Rev {} zzzzzzz 


    D. G. A. Smith, L. A. Burns, A. C. Simmonett, R. M. Parrish,
    M. C. Schieber, R. Galvelis, P. Kraus, H. Kruse, R. Di Remigio,
    A. Alenaizan, A. M. James, S. Lehtola, J. P. Misiewicz, M. Scheurer,
    R. A. Shaw, J. B. Schriber, Y. Xie, Z. L. Glick, D. A. Sirianni,
    J. S. O'Brien, J. M. Waldrop, A. Kumar, E. G. Hohenstein,
    B. P. Pritchard, B. R. Brooks, H. F. Schaefer III, A. Yu. Sokolov,
    K. Patkowski, A. E. DePrince III, U. Bozkaya, R. A. King,
    F. A. Evangelista, J. M. Turney, T. D. Crawford, C. D. Sherrill,
    J. Chem. Phys. 152(18) 184108 (2020). https://doi.org/10.1063/5.0006002

                            Additional Code Authors
    E. T. Seidl, C. L. Janssen, E. F. Valeev, M. L. Leininger,
    J. F. Gonthier, R. M. Richard, H. R. McAlexander, M. Saitow, X. Wang,
    P. Verma, M. H. Lechner, A. Jiang, S. Behnle, A. G. Heide,
    M. F. Herbst, and D. L. Poole

             Previous Authors, Complete List of Code Contributors,
                       and Citations for Specific Modules
    https://github.com/psi4/psi4/blob/master/codemeta.json
    https://github.com/psi4/psi4/graphs/contributors
    http://psicode.org/psi4manual/master/introduction.html#citing-psifour

    -----------------------------------------------------------------------


    Psi4 started on: Thursday, 27 February 2025 05:38PM

    Process ID: 31478
    Host:       Moses-MBP.lan
    PSIDATADIR: /Users/moseschung/miniconda3/envs/psi4/share/psi4
    Memory:     500.0 MiB
    Threads:    10
    
  ==> Input File <==

--------------------------------------------------------------------------
MEMORY 10 GB

molecule dimer {
0 1
C   -2.047742   1.200587  -0.071445
C   -2.243318  -0.219666  -0.521783
O   -1.615977  -1.063864   0.419499
H   -1.731882  -1.977182   0.150940
H   -2.536756   1.896868  -0.754295
H   -0.984032   1.446270  -0.031153
H   -2.464672   1.343588   0.927225
H   -1.812160  -0.360768  -1.523832
H   -3.316117  -0.447358  -0.597375
--
0 1
C    1.488247   0.250942   1.173895
C    1.616273  -0.255164  -0.239503
O    2.892363  -0.020660  -0.792010
H    3.090590   0.914597  -0.700112
H    0.503617   0.009156   1.578517
H    1.610407   1.338850   1.210501
H    2.253336  -0.194460   1.813035
H    0.827640   0.184015  -0.870042
H    1.468182  -1.337578  -0.270308

units ang
no_reorient
no_com
symmetry c1
}

set {
basis        aug-cc-pVTZ
scf_type     df
}

energy("mp2", bsse_type="cp")
--------------------------------------------------------------------------

  Memory set to   9.313 GiB by Python driver.

Scratch directory: /tmp/

  //>>>>>>>>>>>>>>>>>>>>>>>>>>>>>>>>>>>>>//
  // ManyBody Setup: N-Body Levels [1, 2]//
  //<<<<<<<<<<<<<<<<<<<<<<<<<<<<<<<<<<<<<//

        Number of 1-body computations:     2
        Number of 2-body computations:     1

    -----------------------------------------------------------------------
          Psi4: An Open-Source Ab Initio Electronic Structure Package
                               Psi4 1.9.1 release

                         Git: Rev {} zzzzzzz 


    D. G. A. Smith, L. A. Burns, A. C. Simmonett, R. M. Parrish,
    M. C. Schieber, R. Galvelis, P. Kraus, H. Kruse, R. Di Remigio,
    A. Alenaizan, A. M. James, S. Lehtola, J. P. Misiewicz, M. Scheurer,
    R. A. Shaw, J. B. Schriber, Y. Xie, Z. L. Glick, D. A. Sirianni,
    J. S. O'Brien, J. M. Waldrop, A. Kumar, E. G. Hohenstein,
    B. P. Pritchard, B. R. Brooks, H. F. Schaefer III, A. Yu. Sokolov,
    K. Patkowski, A. E. DePrince III, U. Bozkaya, R. A. King,
    F. A. Evangelista, J. M. Turney, T. D. Crawford, C. D. Sherrill,
    J. Chem. Phys. 152(18) 184108 (2020). https://doi.org/10.1063/5.0006002

                            Additional Code Authors
    E. T. Seidl, C. L. Janssen, E. F. Valeev, M. L. Leininger,
    J. F. Gonthier, R. M. Richard, H. R. McAlexander, M. Saitow, X. Wang,
    P. Verma, M. H. Lechner, A. Jiang, S. Behnle, A. G. Heide,
    M. F. Herbst, and D. L. Poole

             Previous Authors, Complete List of Code Contributors,
                       and Citations for Specific Modules
    https://github.com/psi4/psi4/blob/master/codemeta.json
    https://github.com/psi4/psi4/graphs/contributors
    http://psicode.org/psi4manual/master/introduction.html#citing-psifour

    -----------------------------------------------------------------------


    Psi4 started on: Thursday, 27 February 2025 05:38PM

    Process ID: 31478
    Host:       Moses-MBP.lan
    PSIDATADIR: /Users/moseschung/miniconda3/envs/psi4/share/psi4
    Memory:     9.3 GiB
    Threads:    10
    
  ==> Input QCSchema <==

--------------------------------------------------------------------------
{'driver': 'energy',
 'extras': {'psiapi': True, 'wfn_qcvars_only': True},
 'id': None,
 'keywords': {'SCF_TYPE': 'DF', 'function_kwargs': {}},
 'model': {'basis': 'aug-cc-pvtz', 'method': 'mp2'},
 'molecule': {'atom_labels': ['', '', '', '', '', '', '', '', '', '', '', '', '', '', '', '', '', ''],
              'atomic_numbers': [6, 6, 8, 1, 1, 1, 1, 1, 1, 6, 6, 8, 1, 1, 1, 1, 1, 1],
              'extras': {},
              'fix_com': True,
              'fix_orientation': True,
              'fix_symmetry': 'c1',
              'fragment_charges': [0.0, 0.0],
              'fragment_multiplicities': [1, 1],
              'fragments': [[0, 1, 2, 3, 4, 5, 6, 7, 8], [9, 10, 11, 12, 13, 14, 15, 16, 17]],
              'geometry': [-3.8696715555972636, 2.2687806197850375, -0.13501148303333452, -4.239256632309804,
                           -0.4151085790748193, -0.9860269669197619, -3.0537539550389647, -2.010411594734067,
                           0.7927382199034335, -3.272782661610154, -3.7363324801849593, 0.28523526137660454,
                           -4.793774087111898, 3.5845610161449395, -1.4254109678022127, -1.8595509786865176,
                           2.733054203465893, -0.05887063798638772, -4.657555069084396, 2.5390133454516324,
                           1.7522013066776347, -3.424486095509658, -0.6817527148291697, -2.8796251412086535,
                           -6.2665529299748375, -0.845384100032563, -1.1288751441953702, 2.8123792370342366,
                           0.47421165337463833, 2.218340050044317, 3.0543133139721004, -0.4821900770763213,
                           -0.4525950762255262, 5.46577392540758, -0.03904174175195873, -1.4966819886238545,
                           5.840368666078709, 1.7283378451653533, -1.323019937146531, 0.951698202124695,
                           0.017302332404691874, 2.9829648143793146, 3.0432281805201646, 2.5300598230692133,
                           2.2875153645928266, 4.258187908634641, -0.36747614235652926, 3.4261396058694333,
                           1.564012930473917, 0.34773795297612226, -1.6441410976455797, 2.7744618823269254,
                           -2.5276560914376307, -0.5108080895202546],
              'mass_numbers': [12, 12, 16, 1, 1, 1, 1, 1, 1, 12, 12, 16, 1, 1, 1, 1, 1, 1],
              'masses': [12.0, 12.0, 15.99491461957, 1.00782503223, 1.00782503223, 1.00782503223, 1.00782503223,
                         1.00782503223, 1.00782503223, 12.0, 12.0, 15.99491461957, 1.00782503223, 1.00782503223,
                         1.00782503223, 1.00782503223, 1.00782503223, 1.00782503223],
              'molecular_charge': 0.0,
              'molecular_multiplicity': 1,
              'name': 'dimer',
              'provenance': {'creator': 'QCElemental',
                             'routine': 'qcelemental.molparse.from_string',
                             'version': '0.29.0'},
              'real': [False, False, False, False, False, False, False, False, False, True, True, True, True, True,
                       True, True, True, True],
              'schema_name': 'qcschema_molecule',
              'schema_version': 2,
              'symbols': ['C', 'C', 'O', 'H', 'H', 'H', 'H', 'H', 'H', 'C', 'C', 'O', 'H', 'H', 'H', 'H', 'H', 'H'],
              'validated': True},
 'protocols': {'stdout': True},
 'provenance': {'creator': 'QCElemental', 'routine': 'qcelemental.models.results', 'version': '0.29.0'},
 'schema_name': 'qcschema_input',
 'schema_version': 1}
--------------------------------------------------------------------------

Scratch directory: /tmp/
   => Libint2 <=

    Primary   basis highest AM E, G, H:  6, 6, 3
    Auxiliary basis highest AM E, G, H:  7, 7, 4
    Onebody   basis highest AM E, G, H:  -, -, -
    Solid Harmonics ordering:            Gaussian

*** tstart() called on Moses-MBP.lan
*** at Thu Feb 27 17:38:32 2025

   => Loading Basis Set <=

    Name: AUG-CC-PVTZ
    Role: ORBITAL
    Keyword: BASIS
    atoms 1-2, 10-11 entry C          line   239 file /Users/moseschung/miniconda3/envs/psi4/share/psi4/basis/aug-cc-pvtz.gbs 
    atoms 3, 12      entry O          line   331 file /Users/moseschung/miniconda3/envs/psi4/share/psi4/basis/aug-cc-pvtz.gbs 
    atoms 4-9, 13-18 entry H          line    40 file /Users/moseschung/miniconda3/envs/psi4/share/psi4/basis/aug-cc-pvtz.gbs 


         ---------------------------------------------------------
                                   SCF
               by Justin Turney, Rob Parrish, Andy Simmonett
                          and Daniel G. A. Smith
                              RHF Reference
                       10 Threads,   9536 MiB Core
         ---------------------------------------------------------

  ==> Geometry <==

    Molecular point group: c1
    Full point group: C1

    Geometry (in Bohr), charge = 0, multiplicity = 1:

       Center              X                  Y                   Z               Mass       
    ------------   -----------------  -----------------  -----------------  -----------------
      Gh(C)          -3.869671555597     2.268780619785    -0.135011483033    12.000000000000
      Gh(C)          -4.239256632310    -0.415108579075    -0.986026966920    12.000000000000
      Gh(O)          -3.053753955039    -2.010411594734     0.792738219903    15.994914619570
      Gh(H)          -3.272782661610    -3.736332480185     0.285235261377     1.007825032230
      Gh(H)          -4.793774087112     3.584561016145    -1.425410967802     1.007825032230
      Gh(H)          -1.859550978687     2.733054203466    -0.058870637986     1.007825032230
      Gh(H)          -4.657555069084     2.539013345452     1.752201306678     1.007825032230
      Gh(H)          -3.424486095510    -0.681752714829    -2.879625141209     1.007825032230
      Gh(H)          -6.266552929975    -0.845384100033    -1.128875144195     1.007825032230
         C            2.812379237034     0.474211653375     2.218340050044    12.000000000000
         C            3.054313313972    -0.482190077076    -0.452595076226    12.000000000000
         O            5.465773925408    -0.039041741752    -1.496681988624    15.994914619570
         H            5.840368666079     1.728337845165    -1.323019937147     1.007825032230
         H            0.951698202125     0.017302332405     2.982964814379     1.007825032230
         H            3.043228180520     2.530059823069     2.287515364593     1.007825032230
         H            4.258187908635    -0.367476142357     3.426139605869     1.007825032230
         H            1.564012930474     0.347737952976    -1.644141097646     1.007825032230
         H            2.774461882327    -2.527656091438    -0.510808089520     1.007825032230

  Running in c1 symmetry.

  Rotational constants: A =      0.16874  B =      0.03816  C =      0.03747 [cm^-1]
  Rotational constants: A =   5058.84549  B =   1144.06638  C =   1123.36838 [MHz]
  Nuclear repulsion =   82.158694891455596

  Charge       = 0
  Multiplicity = 1
  Electrons    = 26
  Nalpha       = 13
  Nbeta        = 13

  ==> Algorithm <==

  SCF Algorithm Type is DF.
  DIIS enabled.
  MOM disabled.
  Fractional occupation disabled.
  Guess Type is SAD.
  Energy threshold   = 1.00e-08
  Density threshold  = 1.00e-08
  Integral threshold = 1.00e-12

  ==> Primary Basis <==

  Basis Set: AUG-CC-PVTZ
    Blend: AUG-CC-PVTZ
    Number of shells: 192
    Number of basis functions: 552
    Number of Cartesian functions: 630
    Spherical Harmonics?: true
    Max angular momentum: 3

   => Loading Basis Set <=

    Name: (AUG-CC-PVTZ AUX)
    Role: JKFIT
    Keyword: DF_BASIS_SCF
    atoms 1-2, 10-11 entry C          line   162 file /Users/moseschung/miniconda3/envs/psi4/share/psi4/basis/aug-cc-pvtz-jkfit.gbs 
    atoms 3, 12      entry O          line   286 file /Users/moseschung/miniconda3/envs/psi4/share/psi4/basis/aug-cc-pvtz-jkfit.gbs 
    atoms 4-9, 13-18 entry H          line    70 file /Users/moseschung/miniconda3/envs/psi4/share/psi4/basis/aug-cc-pvtz-jkfit.gbs 

  ==> Integral Setup <==

  DFHelper Memory: AOs need 2.614 GiB; user supplied 6.985 GiB. 
  Using in-core AOs.

  ==> MemDFJK: Density-Fitted J/K Matrices <==

    J tasked:                   Yes
    K tasked:                   Yes
    wK tasked:                   No
    OpenMP threads:              10
    Memory [MiB]:              7152
    Algorithm:                 Core
    Schwarz Cutoff:           1E-12
    Mask sparsity (%):       5.6350
    Fitting Condition:        1E-10

   => Auxiliary Basis Set <=

  Basis Set: (AUG-CC-PVTZ AUX)
    Blend: AUG-CC-PVTZ-JKFIT
    Number of shells: 348
    Number of basis functions: 1176
    Number of Cartesian functions: 1446
    Spherical Harmonics?: true
    Max angular momentum: 4

  Minimum eigenvalue in the overlap matrix is 8.3943282104E-06.
  Reciprocal condition number of the overlap matrix is 4.4493472959E-07.
    Using symmetric orthogonalization.

  ==> Pre-Iterations <==

  SCF Guess: Superposition of Atomic Densities via on-the-fly atomic UHF (no occupation information).

   -------------------------
    Irrep   Nso     Nmo    
   -------------------------
     A        552     552 
   -------------------------
    Total     552     552
   -------------------------

  ==> Iterations <==

                           Total Energy        Delta E     RMS |[F,P]|

   @DF-RHF iter SAD:  -153.45943055236657   -1.53459e+02   0.00000e+00 
   @DF-RHF iter   1:  -154.00368687085532   -5.44256e-01   9.36497e-04 ADIIS/DIIS
   @DF-RHF iter   2:  -154.11548005770473   -1.11793e-01   4.93790e-04 ADIIS/DIIS
   @DF-RHF iter   3:  -154.14323450333453   -2.77544e-02   8.37619e-05 DIIS
   @DF-RHF iter   4:  -154.14480899021751   -1.57449e-03   3.20318e-05 DIIS
   @DF-RHF iter   5:  -154.14499442724957   -1.85437e-04   6.21733e-06 DIIS
   @DF-RHF iter   6:  -154.14500468236793   -1.02551e-05   1.42705e-06 DIIS
   @DF-RHF iter   7:  -154.14500541899829   -7.36630e-07   4.05829e-07 DIIS
   @DF-RHF iter   8:  -154.14500547419513   -5.51968e-08   1.28597e-07 DIIS
   @DF-RHF iter   9:  -154.14500548037120   -6.17607e-09   3.30003e-08 DIIS
   @DF-RHF iter  10:  -154.14500548080036   -4.29168e-10   6.26146e-09 DIIS
  Energy and wave function converged.


  ==> Post-Iterations <==

    Orbital Energies [Eh]
    ---------------------

    Doubly Occupied:                                                      

       1A    -20.555659     2A    -11.273312     3A    -11.219131  
       4A     -1.362227     5A     -1.015327     6A     -0.848546  
       7A     -0.685529     8A     -0.626305     9A     -0.614315  
      10A     -0.543503    11A     -0.527464    12A     -0.481724  
      13A     -0.442272  

    Virtual:                                                              

      14A      0.020192    15A      0.031851    16A      0.034917  
      17A      0.038133    18A      0.050496    19A      0.052598  
      20A      0.056977    21A      0.060463    22A      0.063915  
      23A      0.076333    24A      0.080320    25A      0.085528  
      26A      0.092901    27A      0.109136    28A      0.110962  
      29A      0.114602    30A      0.122420    31A      0.125245  
      32A      0.127827    33A      0.136074    34A      0.139114  
      35A      0.147189    36A      0.152626    37A      0.159877  
      38A      0.163119    39A      0.167745    40A      0.175978  
      41A      0.185299    42A      0.192004    43A      0.199858  
      44A      0.209782    45A      0.216096    46A      0.221393  
      47A      0.232929    48A      0.240357    49A      0.251352  
      50A      0.254915    51A      0.263508    52A      0.272379  
      53A      0.277609    54A      0.289219    55A      0.297092  
      56A      0.302704    57A      0.303288    58A      0.312330  
      59A      0.315760    60A      0.318692    61A      0.321529  
      62A      0.334068    63A      0.340793    64A      0.342987  
      65A      0.349486    66A      0.350865    67A      0.353229  
      68A      0.359254    69A      0.363629    70A      0.376547  
      71A      0.379105    72A      0.388019    73A      0.390836  
      74A      0.395325    75A      0.397919    76A      0.400010  
      77A      0.411846    78A      0.418201    79A      0.425270  
      80A      0.432956    81A      0.435411    82A      0.441073  
      83A      0.452071    84A      0.455061    85A      0.460687  
      86A      0.469187    87A      0.469567    88A      0.471997  
      89A      0.476122    90A      0.485040    91A      0.488833  
      92A      0.496559    93A      0.502991    94A      0.507694  
      95A      0.518118    96A      0.520390    97A      0.525644  
      98A      0.533804    99A      0.536992   100A      0.544864  
     101A      0.560873   102A      0.562601   103A      0.580008  
     104A      0.581818   105A      0.588265   106A      0.590023  
     107A      0.594891   108A      0.605622   109A      0.608712  
     110A      0.613008   111A      0.631305   112A      0.638600  
     113A      0.646220   114A      0.651520   115A      0.654447  
     116A      0.665343   117A      0.675062   118A      0.679868  
     119A      0.681550   120A      0.695998   121A      0.699801  
     122A      0.713114   123A      0.719049   124A      0.738898  
     125A      0.754069   126A      0.763011   127A      0.766476  
     128A      0.774174   129A      0.784996   130A      0.790242  
     131A      0.813928   132A      0.815643   133A      0.827139  
     134A      0.842469   135A      0.857311   136A      0.859609  
     137A      0.871948   138A      0.878825   139A      0.886361  
     140A      0.895049   141A      0.906294   142A      0.909653  
     143A      0.916762   144A      0.923681   145A      0.944175  
     146A      0.947240   147A      0.956109   148A      0.965240  
     149A      0.972710   150A      0.977207   151A      0.992062  
     152A      0.994121   153A      0.997046   154A      1.004569  
     155A      1.020276   156A      1.023196   157A      1.027196  
     158A      1.042990   159A      1.047764   160A      1.049710  
     161A      1.061636   162A      1.063758   163A      1.075659  
     164A      1.081464   165A      1.082739   166A      1.087666  
     167A      1.091659   168A      1.096324   169A      1.106967  
     170A      1.112972   171A      1.114087   172A      1.127490  
     173A      1.136524   174A      1.146299   175A      1.148096  
     176A      1.153117   177A      1.161959   178A      1.163372  
     179A      1.173333   180A      1.184536   181A      1.186751  
     182A      1.198711   183A      1.209087   184A      1.212893  
     185A      1.229114   186A      1.229811   187A      1.239824  
     188A      1.251435   189A      1.255370   190A      1.261087  
     191A      1.266913   192A      1.270276   193A      1.272851  
     194A      1.289506   195A      1.295017   196A      1.306350  
     197A      1.308151   198A      1.314402   199A      1.320931  
     200A      1.346779   201A      1.349516   202A      1.363372  
     203A      1.371032   204A      1.375140   205A      1.376832  
     206A      1.386583   207A      1.391594   208A      1.403928  
     209A      1.414278   210A      1.425225   211A      1.431144  
     212A      1.448253   213A      1.464362   214A      1.467650  
     215A      1.480444   216A      1.487605   217A      1.497167  
     218A      1.502693   219A      1.521054   220A      1.531285  
     221A      1.536107   222A      1.542161   223A      1.544107  
     224A      1.555317   225A      1.562293   226A      1.581952  
     227A      1.584768   228A      1.594857   229A      1.602408  
     230A      1.604428   231A      1.625387   232A      1.636528  
     233A      1.648911   234A      1.663051   235A      1.673561  
     236A      1.686863   237A      1.698266   238A      1.708839  
     239A      1.717991   240A      1.736712   241A      1.747362  
     242A      1.755709   243A      1.760146   244A      1.774826  
     245A      1.784350   246A      1.792386   247A      1.793408  
     248A      1.807860   249A      1.816703   250A      1.827047  
     251A      1.833084   252A      1.849115   253A      1.863428  
     254A      1.870719   255A      1.880705   256A      1.897984  
     257A      1.917756   258A      1.930408   259A      1.940102  
     260A      1.952587   261A      1.954570   262A      1.965520  
     263A      1.975863   264A      1.997222   265A      2.010809  
     266A      2.014229   267A      2.027684   268A      2.040998  
     269A      2.051619   270A      2.061711   271A      2.068425  
     272A      2.086060   273A      2.097818   274A      2.108549  
     275A      2.116531   276A      2.134537   277A      2.149782  
     278A      2.162835   279A      2.179231   280A      2.189321  
     281A      2.205163   282A      2.214852   283A      2.224793  
     284A      2.238349   285A      2.249698   286A      2.257180  
     287A      2.263369   288A      2.270454   289A      2.285839  
     290A      2.304783   291A      2.320332   292A      2.337693  
     293A      2.357246   294A      2.362574   295A      2.391353  
     296A      2.396730   297A      2.429424   298A      2.441936  
     299A      2.458027   300A      2.468224   301A      2.480373  
     302A      2.499720   303A      2.534240   304A      2.549119  
     305A      2.572024   306A      2.609547   307A      2.610275  
     308A      2.632062   309A      2.659740   310A      2.685779  
     311A      2.701860   312A      2.714425   313A      2.729634  
     314A      2.740100   315A      2.771155   316A      2.779591  
     317A      2.803854   318A      2.810869   319A      2.822134  
     320A      2.853903   321A      2.869212   322A      2.914364  
     323A      2.925341   324A      2.941681   325A      2.968793  
     326A      2.977546   327A      3.013813   328A      3.034280  
     329A      3.051316   330A      3.070980   331A      3.144606  
     332A      3.165528   333A      3.192200   334A      3.208907  
     335A      3.223392   336A      3.266483   337A      3.315627  
     338A      3.322196   339A      3.382095   340A      3.406239  
     341A      3.453162   342A      3.459495   343A      3.494893  
     344A      3.518698   345A      3.530065   346A      3.545336  
     347A      3.567644   348A      3.599382   349A      3.617901  
     350A      3.627864   351A      3.658281   352A      3.672152  
     353A      3.691740   354A      3.714527   355A      3.762949  
     356A      3.777304   357A      3.805499   358A      3.816014  
     359A      3.837358   360A      3.848849   361A      3.863261  
     362A      3.915387   363A      3.937185   364A      3.962212  
     365A      3.967261   366A      3.985571   367A      4.008464  
     368A      4.017713   369A      4.036814   370A      4.053754  
     371A      4.074471   372A      4.092073   373A      4.122063  
     374A      4.138923   375A      4.145865   376A      4.149444  
     377A      4.170012   378A      4.173735   379A      4.204965  
     380A      4.211705   381A      4.231195   382A      4.233416  
     383A      4.249193   384A      4.279278   385A      4.292629  
     386A      4.303879   387A      4.325733   388A      4.353212  
     389A      4.357102   390A      4.381010   391A      4.399444  
     392A      4.431168   393A      4.449728   394A      4.456080  
     395A      4.473559   396A      4.494335   397A      4.521151  
     398A      4.527353   399A      4.544403   400A      4.567970  
     401A      4.584189   402A      4.591086   403A      4.604892  
     404A      4.617957   405A      4.642019   406A      4.660103  
     407A      4.669791   408A      4.693416   409A      4.700172  
     410A      4.705015   411A      4.731285   412A      4.734459  
     413A      4.743883   414A      4.782639   415A      4.800200  
     416A      4.819779   417A      4.837391   418A      4.844567  
     419A      4.868632   420A      4.875640   421A      4.889248  
     422A      4.907200   423A      4.916487   424A      4.920913  
     425A      4.947055   426A      4.956073   427A      4.968181  
     428A      4.985069   429A      4.991888   430A      5.003882  
     431A      5.017473   432A      5.029182   433A      5.049656  
     434A      5.062280   435A      5.081758   436A      5.110428  
     437A      5.124636   438A      5.151728   439A      5.166929  
     440A      5.200158   441A      5.216382   442A      5.230963  
     443A      5.253423   444A      5.263789   445A      5.293293  
     446A      5.316392   447A      5.334450   448A      5.356247  
     449A      5.382129   450A      5.401560   451A      5.426550  
     452A      5.428223   453A      5.445265   454A      5.459886  
     455A      5.469301   456A      5.498741   457A      5.523814  
     458A      5.534955   459A      5.556325   460A      5.569365  
     461A      5.584383   462A      5.590014   463A      5.607777  
     464A      5.630533   465A      5.639716   466A      5.659854  
     467A      5.687421   468A      5.703591   469A      5.731830  
     470A      5.738555   471A      5.750591   472A      5.769251  
     473A      5.820608   474A      5.826803   475A      5.870401  
     476A      5.914668   477A      5.951824   478A      5.993627  
     479A      6.014141   480A      6.020172   481A      6.059097  
     482A      6.094305   483A      6.131116   484A      6.167923  
     485A      6.188084   486A      6.205074   487A      6.222807  
     488A      6.237451   489A      6.251827   490A      6.283050  
     491A      6.303865   492A      6.323003   493A      6.451875  
     494A      6.471332   495A      6.556416   496A      6.691400  
     497A      6.751848   498A      6.808968   499A      6.832206  
     500A      6.868875   501A      6.885822   502A      6.925480  
     503A      6.955626   504A      6.996309   505A      7.016715  
     506A      7.106737   507A      7.140073   508A      7.158794  
     509A      7.229026   510A      7.298911   511A      7.352981  
     512A      7.403026   513A      7.461521   514A      7.539986  
     515A      7.662003   516A      7.761757   517A      7.841589  
     518A      7.861598   519A      7.870078   520A      7.875401  
     521A      7.906577   522A      7.924350   523A      7.955677  
     524A      8.000455   525A      8.148097   526A      8.185137  
     527A      8.201688   528A      8.253215   529A      8.321685  
     530A      8.369669   531A      8.434719   532A      8.608458  
     533A      8.644572   534A      8.896024   535A      9.059917  
     536A      9.980578   537A     10.146859   538A     10.365723  
     539A     10.389687   540A     10.439957   541A     10.805724  
     542A     11.086891   543A     11.947351   544A     12.438080  
     545A     13.294840   546A     14.143811   547A     16.438458  
     548A     17.882112   549A     18.787072   550A     53.117344  
     551A     54.434524   552A     66.488610  

    Final Occupation by Irrep:
              A 
    DOCC [    13 ]
    NA   [    13 ]
    NB   [    13 ]

  @DF-RHF Final Energy:  -154.14500548080036

   => Energetics <=

    Nuclear Repulsion Energy =             82.1586948914555961
    One-Electron Energy =                -372.2167701774529291
    Two-Electron Energy =                 135.9130698051969830
    Total Energy =                       -154.1450054808003642

Computation Completed


Properties will be evaluated at   0.000000,   0.000000,   0.000000 [a0]

Properties computed using the SCF density matrix


 Multipole Moments:

 ------------------------------------------------------------------------------------
     Multipole            Electronic (a.u.)      Nuclear  (a.u.)        Total (a.u.)
 ------------------------------------------------------------------------------------

 L = 1.  Multiply by 2.5417464519 to convert [e a0] to [Debye]
 Dipole X            :        -97.7923470           97.3583045           -0.4340425
 Dipole Y            :         -0.9116688            1.3681012            0.4564324
 Dipole Z            :         -3.4982261            3.8396646            0.3414385
 Magnitude           :                                                    0.7164521

 ------------------------------------------------------------------------------------

*** tstop() called on Moses-MBP.lan at Thu Feb 27 17:38:42 2025
Module time:
	user time   =      70.96 seconds =       1.18 minutes
	system time =       6.58 seconds =       0.11 minutes
	total time  =         10 seconds =       0.17 minutes
Total time:
	user time   =      70.96 seconds =       1.18 minutes
	system time =       6.58 seconds =       0.11 minutes
	total time  =         10 seconds =       0.17 minutes

*** tstart() called on Moses-MBP.lan
*** at Thu Feb 27 17:38:42 2025


  //>>>>>>>>>>>>>>>>>>>>>>>>>>>>>>>>>>>//
  //               DFMP2               //
  //<<<<<<<<<<<<<<<<<<<<<<<<<<<<<<<<<<<//

   => Loading Basis Set <=

    Name: (AUG-CC-PVTZ AUX)
    Role: RIFIT
    Keyword: DF_BASIS_MP2
    atoms 1-2, 10-11 entry C          line   148 file /Users/moseschung/miniconda3/envs/psi4/share/psi4/basis/aug-cc-pvtz-ri.gbs 
    atoms 3, 12      entry O          line   264 file /Users/moseschung/miniconda3/envs/psi4/share/psi4/basis/aug-cc-pvtz-ri.gbs 
    atoms 4-9, 13-18 entry H          line    30 file /Users/moseschung/miniconda3/envs/psi4/share/psi4/basis/aug-cc-pvtz-ri.gbs 

	 --------------------------------------------------------
	                          DF-MP2                         
	      2nd-Order Density-Fitted Moller-Plesset Theory     
	              RMP2 Wavefunction,  10 Threads             
	                                                         
	        Rob Parrish, Justin Turney, Andy Simmonett,      
	           Ed Hohenstein, and C. David Sherrill          
	 --------------------------------------------------------

   => Auxiliary Basis Set <=

  Basis Set: (AUG-CC-PVTZ AUX)
    Blend: AUG-CC-PVTZ-RI
    Number of shells: 336
    Number of basis functions: 1188
    Number of Cartesian functions: 1476
    Spherical Harmonics?: true
    Max angular momentum: 4

	 --------------------------------------------------------
	                 NBF =   552, NAUX =  1188
	 --------------------------------------------------------
	   CLASS    FOCC     OCC    AOCC    AVIR     VIR    FVIR
	   PAIRS       0      13      13     539     539       0
	 --------------------------------------------------------

	-----------------------------------------------------------
	 ==================> DF-MP2 Energies <==================== 
	-----------------------------------------------------------
	 Reference Energy          =    -154.1450054808003642 [Eh]
	 Singles Energy            =      -0.0000000000000000 [Eh]
	 Same-Spin Energy          =      -0.1482326058887046 [Eh]
	 Opposite-Spin Energy      =      -0.5184158242063859 [Eh]
	 Correlation Energy        =      -0.6666484300950906 [Eh]
	 Total Energy              =    -154.8116539108954441 [Eh]
	-----------------------------------------------------------
	 ================> DF-SCS-MP2 Energies <================== 
	-----------------------------------------------------------
	 SCS Same-Spin Scale       =       0.3333333333333333 [-]
	 SCS Opposite-Spin Scale   =       1.2000000000000000 [-]
	 SCS Same-Spin Energy      =      -0.0494108686295682 [Eh]
	 SCS Opposite-Spin Energy  =      -0.6220989890476630 [Eh]
	 SCS Correlation Energy    =      -0.6715098576772313 [Eh]
	 SCS Total Energy          =    -154.8165153384775863 [Eh]
	-----------------------------------------------------------


*** tstop() called on Moses-MBP.lan at Thu Feb 27 17:38:45 2025
Module time:
	user time   =      20.41 seconds =       0.34 minutes
	system time =       1.94 seconds =       0.03 minutes
	total time  =          3 seconds =       0.05 minutes
Total time:
	user time   =      91.37 seconds =       1.52 minutes
	system time =       8.52 seconds =       0.14 minutes
	total time  =         13 seconds =       0.22 minutes

    Psi4 stopped on: Thursday, 27 February 2025 05:38PM
    Psi4 wall time for execution: 0:00:12.95


    -----------------------------------------------------------------------
          Psi4: An Open-Source Ab Initio Electronic Structure Package
                               Psi4 1.9.1 release

                         Git: Rev {} zzzzzzz 


    D. G. A. Smith, L. A. Burns, A. C. Simmonett, R. M. Parrish,
    M. C. Schieber, R. Galvelis, P. Kraus, H. Kruse, R. Di Remigio,
    A. Alenaizan, A. M. James, S. Lehtola, J. P. Misiewicz, M. Scheurer,
    R. A. Shaw, J. B. Schriber, Y. Xie, Z. L. Glick, D. A. Sirianni,
    J. S. O'Brien, J. M. Waldrop, A. Kumar, E. G. Hohenstein,
    B. P. Pritchard, B. R. Brooks, H. F. Schaefer III, A. Yu. Sokolov,
    K. Patkowski, A. E. DePrince III, U. Bozkaya, R. A. King,
    F. A. Evangelista, J. M. Turney, T. D. Crawford, C. D. Sherrill,
    J. Chem. Phys. 152(18) 184108 (2020). https://doi.org/10.1063/5.0006002

                            Additional Code Authors
    E. T. Seidl, C. L. Janssen, E. F. Valeev, M. L. Leininger,
    J. F. Gonthier, R. M. Richard, H. R. McAlexander, M. Saitow, X. Wang,
    P. Verma, M. H. Lechner, A. Jiang, S. Behnle, A. G. Heide,
    M. F. Herbst, and D. L. Poole

             Previous Authors, Complete List of Code Contributors,
                       and Citations for Specific Modules
    https://github.com/psi4/psi4/blob/master/codemeta.json
    https://github.com/psi4/psi4/graphs/contributors
    http://psicode.org/psi4manual/master/introduction.html#citing-psifour

    -----------------------------------------------------------------------


    Psi4 started on: Thursday, 27 February 2025 05:38PM

    Process ID: 31478
    Host:       Moses-MBP.lan
    PSIDATADIR: /Users/moseschung/miniconda3/envs/psi4/share/psi4
    Memory:     9.3 GiB
    Threads:    10
    
  ==> Input QCSchema <==

--------------------------------------------------------------------------
{'driver': 'energy',
 'extras': {'psiapi': True, 'wfn_qcvars_only': True},
 'id': None,
 'keywords': {'SCF_TYPE': 'DF', 'function_kwargs': {}},
 'model': {'basis': 'aug-cc-pvtz', 'method': 'mp2'},
 'molecule': {'atom_labels': ['', '', '', '', '', '', '', '', '', '', '', '', '', '', '', '', '', ''],
              'atomic_numbers': [6, 6, 8, 1, 1, 1, 1, 1, 1, 6, 6, 8, 1, 1, 1, 1, 1, 1],
              'extras': {},
              'fix_com': True,
              'fix_orientation': True,
              'fix_symmetry': 'c1',
              'fragment_charges': [0.0, 0.0],
              'fragment_multiplicities': [1, 1],
              'fragments': [[0, 1, 2, 3, 4, 5, 6, 7, 8], [9, 10, 11, 12, 13, 14, 15, 16, 17]],
              'geometry': [-3.8696715555972636, 2.2687806197850375, -0.13501148303333452, -4.239256632309804,
                           -0.4151085790748193, -0.9860269669197619, -3.0537539550389647, -2.010411594734067,
                           0.7927382199034335, -3.272782661610154, -3.7363324801849593, 0.28523526137660454,
                           -4.793774087111898, 3.5845610161449395, -1.4254109678022127, -1.8595509786865176,
                           2.733054203465893, -0.05887063798638772, -4.657555069084396, 2.5390133454516324,
                           1.7522013066776347, -3.424486095509658, -0.6817527148291697, -2.8796251412086535,
                           -6.2665529299748375, -0.845384100032563, -1.1288751441953702, 2.8123792370342366,
                           0.47421165337463833, 2.218340050044317, 3.0543133139721004, -0.4821900770763213,
                           -0.4525950762255262, 5.46577392540758, -0.03904174175195873, -1.4966819886238545,
                           5.840368666078709, 1.7283378451653533, -1.323019937146531, 0.951698202124695,
                           0.017302332404691874, 2.9829648143793146, 3.0432281805201646, 2.5300598230692133,
                           2.2875153645928266, 4.258187908634641, -0.36747614235652926, 3.4261396058694333,
                           1.564012930473917, 0.34773795297612226, -1.6441410976455797, 2.7744618823269254,
                           -2.5276560914376307, -0.5108080895202546],
              'mass_numbers': [12, 12, 16, 1, 1, 1, 1, 1, 1, 12, 12, 16, 1, 1, 1, 1, 1, 1],
              'masses': [12.0, 12.0, 15.99491461957, 1.00782503223, 1.00782503223, 1.00782503223, 1.00782503223,
                         1.00782503223, 1.00782503223, 12.0, 12.0, 15.99491461957, 1.00782503223, 1.00782503223,
                         1.00782503223, 1.00782503223, 1.00782503223, 1.00782503223],
              'molecular_charge': 0.0,
              'molecular_multiplicity': 1,
              'name': 'dimer',
              'provenance': {'creator': 'QCElemental',
                             'routine': 'qcelemental.molparse.from_string',
                             'version': '0.29.0'},
              'real': [True, True, True, True, True, True, True, True, True, False, False, False, False, False, False,
                       False, False, False],
              'schema_name': 'qcschema_molecule',
              'schema_version': 2,
              'symbols': ['C', 'C', 'O', 'H', 'H', 'H', 'H', 'H', 'H', 'C', 'C', 'O', 'H', 'H', 'H', 'H', 'H', 'H'],
              'validated': True},
 'protocols': {'stdout': True},
 'provenance': {'creator': 'QCElemental', 'routine': 'qcelemental.models.results', 'version': '0.29.0'},
 'schema_name': 'qcschema_input',
 'schema_version': 1}
--------------------------------------------------------------------------

Scratch directory: /tmp/
   => Libint2 <=

    Primary   basis highest AM E, G, H:  6, 6, 3
    Auxiliary basis highest AM E, G, H:  7, 7, 4
    Onebody   basis highest AM E, G, H:  -, -, -
    Solid Harmonics ordering:            Gaussian

*** tstart() called on Moses-MBP.lan
*** at Thu Feb 27 17:38:45 2025

   => Loading Basis Set <=

    Name: AUG-CC-PVTZ
    Role: ORBITAL
    Keyword: BASIS
    atoms 1-2, 10-11 entry C          line   239 file /Users/moseschung/miniconda3/envs/psi4/share/psi4/basis/aug-cc-pvtz.gbs 
    atoms 3, 12      entry O          line   331 file /Users/moseschung/miniconda3/envs/psi4/share/psi4/basis/aug-cc-pvtz.gbs 
    atoms 4-9, 13-18 entry H          line    40 file /Users/moseschung/miniconda3/envs/psi4/share/psi4/basis/aug-cc-pvtz.gbs 


         ---------------------------------------------------------
                                   SCF
               by Justin Turney, Rob Parrish, Andy Simmonett
                          and Daniel G. A. Smith
                              RHF Reference
                       10 Threads,   9536 MiB Core
         ---------------------------------------------------------

  ==> Geometry <==

    Molecular point group: c1
    Full point group: C1

    Geometry (in Bohr), charge = 0, multiplicity = 1:

       Center              X                  Y                   Z               Mass       
    ------------   -----------------  -----------------  -----------------  -----------------
         C           -3.869671555597     2.268780619785    -0.135011483033    12.000000000000
         C           -4.239256632310    -0.415108579075    -0.986026966920    12.000000000000
         O           -3.053753955039    -2.010411594734     0.792738219903    15.994914619570
         H           -3.272782661610    -3.736332480185     0.285235261377     1.007825032230
         H           -4.793774087112     3.584561016145    -1.425410967802     1.007825032230
         H           -1.859550978687     2.733054203466    -0.058870637986     1.007825032230
         H           -4.657555069084     2.539013345452     1.752201306678     1.007825032230
         H           -3.424486095510    -0.681752714829    -2.879625141209     1.007825032230
         H           -6.266552929975    -0.845384100033    -1.128875144195     1.007825032230
      Gh(C)           2.812379237034     0.474211653375     2.218340050044    12.000000000000
      Gh(C)           3.054313313972    -0.482190077076    -0.452595076226    12.000000000000
      Gh(O)           5.465773925408    -0.039041741752    -1.496681988624    15.994914619570
      Gh(H)           5.840368666079     1.728337845165    -1.323019937147     1.007825032230
      Gh(H)           0.951698202125     0.017302332405     2.982964814379     1.007825032230
      Gh(H)           3.043228180520     2.530059823069     2.287515364593     1.007825032230
      Gh(H)           4.258187908635    -0.367476142357     3.426139605869     1.007825032230
      Gh(H)           1.564012930474     0.347737952976    -1.644141097646     1.007825032230
      Gh(H)           2.774461882327    -2.527656091438    -0.510808089520     1.007825032230

  Running in c1 symmetry.

  Rotational constants: A =      0.16874  B =      0.03816  C =      0.03747 [cm^-1]
  Rotational constants: A =   5058.84549  B =   1144.06638  C =   1123.36838 [MHz]
  Nuclear repulsion =   82.258425395320188

  Charge       = 0
  Multiplicity = 1
  Electrons    = 26
  Nalpha       = 13
  Nbeta        = 13

  ==> Algorithm <==

  SCF Algorithm Type is DF.
  DIIS enabled.
  MOM disabled.
  Fractional occupation disabled.
  Guess Type is SAD.
  Energy threshold   = 1.00e-08
  Density threshold  = 1.00e-08
  Integral threshold = 1.00e-12

  ==> Primary Basis <==

  Basis Set: AUG-CC-PVTZ
    Blend: AUG-CC-PVTZ
    Number of shells: 192
    Number of basis functions: 552
    Number of Cartesian functions: 630
    Spherical Harmonics?: true
    Max angular momentum: 3

   => Loading Basis Set <=

    Name: (AUG-CC-PVTZ AUX)
    Role: JKFIT
    Keyword: DF_BASIS_SCF
    atoms 1-2, 10-11 entry C          line   162 file /Users/moseschung/miniconda3/envs/psi4/share/psi4/basis/aug-cc-pvtz-jkfit.gbs 
    atoms 3, 12      entry O          line   286 file /Users/moseschung/miniconda3/envs/psi4/share/psi4/basis/aug-cc-pvtz-jkfit.gbs 
    atoms 4-9, 13-18 entry H          line    70 file /Users/moseschung/miniconda3/envs/psi4/share/psi4/basis/aug-cc-pvtz-jkfit.gbs 

  ==> Integral Setup <==

  DFHelper Memory: AOs need 2.614 GiB; user supplied 6.985 GiB. 
  Using in-core AOs.

  ==> MemDFJK: Density-Fitted J/K Matrices <==

    J tasked:                   Yes
    K tasked:                   Yes
    wK tasked:                   No
    OpenMP threads:              10
    Memory [MiB]:              7152
    Algorithm:                 Core
    Schwarz Cutoff:           1E-12
    Mask sparsity (%):       5.6350
    Fitting Condition:        1E-10

   => Auxiliary Basis Set <=

  Basis Set: (AUG-CC-PVTZ AUX)
    Blend: AUG-CC-PVTZ-JKFIT
    Number of shells: 348
    Number of basis functions: 1176
    Number of Cartesian functions: 1446
    Spherical Harmonics?: true
    Max angular momentum: 4

  Minimum eigenvalue in the overlap matrix is 8.3943282104E-06.
  Reciprocal condition number of the overlap matrix is 4.4493472959E-07.
    Using symmetric orthogonalization.

  ==> Pre-Iterations <==

  SCF Guess: Superposition of Atomic Densities via on-the-fly atomic UHF (no occupation information).

   -------------------------
    Irrep   Nso     Nmo    
   -------------------------
     A        552     552 
   -------------------------
    Total     552     552
   -------------------------

  ==> Iterations <==

                           Total Energy        Delta E     RMS |[F,P]|

   @DF-RHF iter SAD:  -153.44945029182043   -1.53449e+02   0.00000e+00 
   @DF-RHF iter   1:  -153.99878495951799   -5.49335e-01   9.60672e-04 ADIIS/DIIS
   @DF-RHF iter   2:  -154.11088890310839   -1.12104e-01   5.34793e-04 ADIIS/DIIS
   @DF-RHF iter   3:  -154.14387712101626   -3.29882e-02   8.44113e-05 DIIS
   @DF-RHF iter   4:  -154.14547376500832   -1.59664e-03   3.23435e-05 DIIS
   @DF-RHF iter   5:  -154.14565769337230   -1.83928e-04   5.76076e-06 DIIS
   @DF-RHF iter   6:  -154.14566729397936   -9.60061e-06   1.27469e-06 DIIS
   @DF-RHF iter   7:  -154.14566784890124   -5.54922e-07   3.91563e-07 DIIS
   @DF-RHF iter   8:  -154.14566789261465   -4.37134e-08   1.04985e-07 DIIS
   @DF-RHF iter   9:  -154.14566789679844   -4.18379e-09   2.52952e-08 DIIS
   @DF-RHF iter  10:  -154.14566789706186   -2.63412e-10   4.81602e-09 DIIS
  Energy and wave function converged.


  ==> Post-Iterations <==

    Orbital Energies [Eh]
    ---------------------

    Doubly Occupied:                                                      

       1A    -20.555749     2A    -11.273727     3A    -11.210814  
       4A     -1.361833     5A     -1.013993     6A     -0.833265  
       7A     -0.703449     8A     -0.645578     9A     -0.573817  
      10A     -0.533623    11A     -0.524152    12A     -0.489031  
      13A     -0.440103  

    Virtual:                                                              

      14A      0.024377    15A      0.032871    16A      0.036378  
      17A      0.039094    18A      0.051903    19A      0.053802  
      20A      0.055569    21A      0.061017    22A      0.065710  
      23A      0.075926    24A      0.084568    25A      0.088403  
      26A      0.099536    27A      0.109482    28A      0.112627  
      29A      0.116908    30A      0.120615    31A      0.128375  
      32A      0.131224    33A      0.138021    34A      0.141769  
      35A      0.152734    36A      0.156439    37A      0.158522  
      38A      0.163588    39A      0.170412    40A      0.176381  
      41A      0.186548    42A      0.196138    43A      0.205334  
      44A      0.211136    45A      0.215644    46A      0.227668  
      47A      0.240382    48A      0.247252    49A      0.254410  
      50A      0.259237    51A      0.267208    52A      0.280081  
      53A      0.286884    54A      0.291670    55A      0.294469  
      56A      0.297015    57A      0.308684    58A      0.310210  
      59A      0.312297    60A      0.323778    61A      0.329981  
      62A      0.333396    63A      0.335173    64A      0.342338  
      65A      0.346192    66A      0.349018    67A      0.357716  
      68A      0.367208    69A      0.374858    70A      0.380367  
      71A      0.386835    72A      0.387960    73A      0.397858  
      74A      0.403089    75A      0.406132    76A      0.417099  
      77A      0.420986    78A      0.423714    79A      0.435364  
      80A      0.441426    81A      0.443768    82A      0.445413  
      83A      0.452976    84A      0.456170    85A      0.460526  
      86A      0.465876    87A      0.477843    88A      0.484230  
      89A      0.488466    90A      0.493625    91A      0.499749  
      92A      0.504613    93A      0.508792    94A      0.517898  
      95A      0.525588    96A      0.529707    97A      0.533277  
      98A      0.538709    99A      0.548887   100A      0.550640  
     101A      0.552008   102A      0.569187   103A      0.570107  
     104A      0.578433   105A      0.588066   106A      0.590834  
     107A      0.594569   108A      0.605073   109A      0.616080  
     110A      0.619798   111A      0.630509   112A      0.635759  
     113A      0.643833   114A      0.650109   115A      0.653117  
     116A      0.657903   117A      0.671902   118A      0.682732  
     119A      0.694655   120A      0.697767   121A      0.701795  
     122A      0.719644   123A      0.731849   124A      0.740451  
     125A      0.744460   126A      0.764770   127A      0.791636  
     128A      0.793734   129A      0.806212   130A      0.807789  
     131A      0.826801   132A      0.839118   133A      0.846066  
     134A      0.854268   135A      0.859932   136A      0.864714  
     137A      0.879662   138A      0.891822   139A      0.901093  
     140A      0.911000   141A      0.918863   142A      0.927036  
     143A      0.929847   144A      0.936484   145A      0.941267  
     146A      0.945969   147A      0.967946   148A      0.972936  
     149A      0.976872   150A      0.992301   151A      0.995563  
     152A      1.003475   153A      1.008746   154A      1.014599  
     155A      1.022713   156A      1.027413   157A      1.035538  
     158A      1.038363   159A      1.050487   160A      1.055771  
     161A      1.060814   162A      1.071144   163A      1.074741  
     164A      1.077079   165A      1.088857   166A      1.094233  
     167A      1.103591   168A      1.104378   169A      1.112200  
     170A      1.118640   171A      1.123164   172A      1.127383  
     173A      1.133057   174A      1.138939   175A      1.153533  
     176A      1.155758   177A      1.162029   178A      1.166520  
     179A      1.175549   180A      1.181421   181A      1.189982  
     182A      1.198476   183A      1.207207   184A      1.216237  
     185A      1.226435   186A      1.234314   187A      1.242253  
     188A      1.248354   189A      1.261620   190A      1.267949  
     191A      1.277189   192A      1.280272   193A      1.287043  
     194A      1.295217   195A      1.304518   196A      1.317010  
     197A      1.324070   198A      1.330418   199A      1.337985  
     200A      1.350700   201A      1.354279   202A      1.365995  
     203A      1.373915   204A      1.381682   205A      1.385049  
     206A      1.389593   207A      1.402390   208A      1.421129  
     209A      1.430422   210A      1.436687   211A      1.442241  
     212A      1.448763   213A      1.455756   214A      1.469681  
     215A      1.477821   216A      1.494139   217A      1.501149  
     218A      1.502016   219A      1.517226   220A      1.525121  
     221A      1.533462   222A      1.536394   223A      1.560606  
     224A      1.572938   225A      1.575232   226A      1.580433  
     227A      1.611911   228A      1.615072   229A      1.620917  
     230A      1.630465   231A      1.640236   232A      1.650347  
     233A      1.668401   234A      1.674606   235A      1.690526  
     236A      1.696387   237A      1.710704   238A      1.714326  
     239A      1.731259   240A      1.736861   241A      1.745378  
     242A      1.754126   243A      1.761246   244A      1.770143  
     245A      1.780950   246A      1.799377   247A      1.807672  
     248A      1.825463   249A      1.839193   250A      1.850199  
     251A      1.856287   252A      1.860993   253A      1.877675  
     254A      1.889846   255A      1.893495   256A      1.922155  
     257A      1.927302   258A      1.934810   259A      1.949631  
     260A      1.960843   261A      1.975983   262A      1.984236  
     263A      1.993156   264A      2.005811   265A      2.011515  
     266A      2.021196   267A      2.029470   268A      2.041492  
     269A      2.068219   270A      2.073211   271A      2.088898  
     272A      2.098800   273A      2.110024   274A      2.116178  
     275A      2.126415   276A      2.133175   277A      2.144042  
     278A      2.151953   279A      2.175707   280A      2.189400  
     281A      2.201038   282A      2.213418   283A      2.229710  
     284A      2.242904   285A      2.251137   286A      2.262921  
     287A      2.281970   288A      2.292122   289A      2.315343  
     290A      2.328619   291A      2.331749   292A      2.359066  
     293A      2.372987   294A      2.388839   295A      2.392762  
     296A      2.428060   297A      2.449539   298A      2.466540  
     299A      2.491993   300A      2.502228   301A      2.510207  
     302A      2.514986   303A      2.553251   304A      2.569057  
     305A      2.587099   306A      2.603976   307A      2.631858  
     308A      2.646878   309A      2.669332   310A      2.694871  
     311A      2.708006   312A      2.729653   313A      2.747412  
     314A      2.765356   315A      2.780804   316A      2.803406  
     317A      2.817137   318A      2.821292   319A      2.834515  
     320A      2.869444   321A      2.890691   322A      2.909004  
     323A      2.931844   324A      2.946083   325A      2.973583  
     326A      2.988008   327A      3.005874   328A      3.028064  
     329A      3.037903   330A      3.071293   331A      3.090852  
     332A      3.098710   333A      3.171786   334A      3.188059  
     335A      3.236733   336A      3.263934   337A      3.304775  
     338A      3.328384   339A      3.342601   340A      3.346887  
     341A      3.418909   342A      3.476228   343A      3.478129  
     344A      3.505012   345A      3.515634   346A      3.519687  
     347A      3.548363   348A      3.633492   349A      3.642534  
     350A      3.673941   351A      3.685870   352A      3.707592  
     353A      3.733134   354A      3.743134   355A      3.773869  
     356A      3.794888   357A      3.799465   358A      3.829310  
     359A      3.842746   360A      3.867303   361A      3.873692  
     362A      3.914435   363A      3.941549   364A      3.965414  
     365A      3.999905   366A      4.016146   367A      4.034738  
     368A      4.050811   369A      4.069175   370A      4.090419  
     371A      4.105035   372A      4.112623   373A      4.117428  
     374A      4.134108   375A      4.163848   376A      4.173022  
     377A      4.185110   378A      4.202033   379A      4.216467  
     380A      4.233616   381A      4.254086   382A      4.262492  
     383A      4.263554   384A      4.291511   385A      4.310578  
     386A      4.329454   387A      4.343170   388A      4.355158  
     389A      4.366213   390A      4.377119   391A      4.401660  
     392A      4.429948   393A      4.448333   394A      4.465631  
     395A      4.489628   396A      4.505846   397A      4.524741  
     398A      4.534596   399A      4.555439   400A      4.563468  
     401A      4.580934   402A      4.590347   403A      4.607675  
     404A      4.611150   405A      4.623527   406A      4.630129  
     407A      4.650461   408A      4.677397   409A      4.695639  
     410A      4.708474   411A      4.716157   412A      4.726361  
     413A      4.756374   414A      4.777034   415A      4.798268  
     416A      4.804364   417A      4.827079   418A      4.838045  
     419A      4.866901   420A      4.883233   421A      4.892731  
     422A      4.912908   423A      4.921900   424A      4.936551  
     425A      4.950836   426A      4.972191   427A      4.981746  
     428A      5.020004   429A      5.038784   430A      5.050634  
     431A      5.056843   432A      5.070112   433A      5.078021  
     434A      5.100224   435A      5.120381   436A      5.129342  
     437A      5.157609   438A      5.167796   439A      5.170759  
     440A      5.205925   441A      5.228824   442A      5.242432  
     443A      5.259372   444A      5.261421   445A      5.325981  
     446A      5.345216   447A      5.351885   448A      5.361929  
     449A      5.371288   450A      5.376317   451A      5.399841  
     452A      5.436235   453A      5.448113   454A      5.465036  
     455A      5.481757   456A      5.520073   457A      5.531976  
     458A      5.540470   459A      5.551704   460A      5.571798  
     461A      5.591409   462A      5.601435   463A      5.614568  
     464A      5.626819   465A      5.662831   466A      5.675939  
     467A      5.698275   468A      5.737967   469A      5.759538  
     470A      5.763902   471A      5.771277   472A      5.789095  
     473A      5.819963   474A      5.839836   475A      5.859013  
     476A      5.887445   477A      5.898466   478A      5.971329  
     479A      6.025622   480A      6.036764   481A      6.051119  
     482A      6.112637   483A      6.137396   484A      6.157036  
     485A      6.184938   486A      6.196496   487A      6.224300  
     488A      6.266423   489A      6.292183   490A      6.323341  
     491A      6.343134   492A      6.412583   493A      6.423827  
     494A      6.458928   495A      6.523414   496A      6.736071  
     497A      6.760620   498A      6.774224   499A      6.860597  
     500A      6.879059   501A      6.897767   502A      6.959375  
     503A      6.992405   504A      7.026142   505A      7.039352  
     506A      7.113869   507A      7.159133   508A      7.200764  
     509A      7.223866   510A      7.340596   511A      7.375079  
     512A      7.411231   513A      7.558833   514A      7.571559  
     515A      7.661060   516A      7.805150   517A      7.836403  
     518A      7.857599   519A      7.872728   520A      7.886168  
     521A      7.921457   522A      7.928201   523A      7.967978  
     524A      8.055640   525A      8.117747   526A      8.202437  
     527A      8.297268   528A      8.305946   529A      8.314927  
     530A      8.400117   531A      8.408695   532A      8.593172  
     533A      8.674218   534A      8.910792   535A      8.992823  
     536A      9.988098   537A     10.044815   538A     10.263154  
     539A     10.391686   540A     10.716964   541A     10.779663  
     542A     11.101973   543A     12.036404   544A     12.402954  
     545A     13.326456   546A     14.102983   547A     16.193218  
     548A     18.059654   549A     18.558278   550A     53.093671  
     551A     54.753724   552A     66.759842  

    Final Occupation by Irrep:
              A 
    DOCC [    13 ]
    NA   [    13 ]
    NB   [    13 ]

  @DF-RHF Final Energy:  -154.14566789706186

   => Energetics <=

    Nuclear Repulsion Energy =             82.2584253953201880
    One-Electron Energy =                -372.4899167169415364
    Two-Electron Energy =                 136.0858234245594645
    Total Energy =                       -154.1456678970618555

Computation Completed


Properties will be evaluated at   0.000000,   0.000000,   0.000000 [a0]

Properties computed using the SCF density matrix


 Multipole Moments:

 ------------------------------------------------------------------------------------
     Multipole            Electronic (a.u.)      Nuclear  (a.u.)        Total (a.u.)
 ------------------------------------------------------------------------------------

 L = 1.  Multiply by 2.5417464519 to convert [e a0] to [Debye]
 Dipole X            :         97.0341681          -97.3583026           -0.3241345
 Dipole Y            :          1.1791251           -1.3681012           -0.1889762
 Dipole Z            :          3.3001708           -3.8396703           -0.5394995
 Magnitude           :                                                    0.6571414

 ------------------------------------------------------------------------------------

*** tstop() called on Moses-MBP.lan at Thu Feb 27 17:38:55 2025
Module time:
	user time   =      71.38 seconds =       1.19 minutes
	system time =       5.83 seconds =       0.10 minutes
	total time  =         10 seconds =       0.17 minutes
Total time:
	user time   =     163.04 seconds =       2.72 minutes
	system time =      14.41 seconds =       0.24 minutes
	total time  =         23 seconds =       0.38 minutes

*** tstart() called on Moses-MBP.lan
*** at Thu Feb 27 17:38:55 2025


  //>>>>>>>>>>>>>>>>>>>>>>>>>>>>>>>>>>>//
  //               DFMP2               //
  //<<<<<<<<<<<<<<<<<<<<<<<<<<<<<<<<<<<//

   => Loading Basis Set <=

    Name: (AUG-CC-PVTZ AUX)
    Role: RIFIT
    Keyword: DF_BASIS_MP2
    atoms 1-2, 10-11 entry C          line   148 file /Users/moseschung/miniconda3/envs/psi4/share/psi4/basis/aug-cc-pvtz-ri.gbs 
    atoms 3, 12      entry O          line   264 file /Users/moseschung/miniconda3/envs/psi4/share/psi4/basis/aug-cc-pvtz-ri.gbs 
    atoms 4-9, 13-18 entry H          line    30 file /Users/moseschung/miniconda3/envs/psi4/share/psi4/basis/aug-cc-pvtz-ri.gbs 

	 --------------------------------------------------------
	                          DF-MP2                         
	      2nd-Order Density-Fitted Moller-Plesset Theory     
	              RMP2 Wavefunction,  10 Threads             
	                                                         
	        Rob Parrish, Justin Turney, Andy Simmonett,      
	           Ed Hohenstein, and C. David Sherrill          
	 --------------------------------------------------------

   => Auxiliary Basis Set <=

  Basis Set: (AUG-CC-PVTZ AUX)
    Blend: AUG-CC-PVTZ-RI
    Number of shells: 336
    Number of basis functions: 1188
    Number of Cartesian functions: 1476
    Spherical Harmonics?: true
    Max angular momentum: 4

	 --------------------------------------------------------
	                 NBF =   552, NAUX =  1188
	 --------------------------------------------------------
	   CLASS    FOCC     OCC    AOCC    AVIR     VIR    FVIR
	   PAIRS       0      13      13     539     539       0
	 --------------------------------------------------------

	-----------------------------------------------------------
	 ==================> DF-MP2 Energies <==================== 
	-----------------------------------------------------------
	 Reference Energy          =    -154.1456678970618555 [Eh]
	 Singles Energy            =      -0.0000000000000000 [Eh]
	 Same-Spin Energy          =      -0.1481309659637054 [Eh]
	 Opposite-Spin Energy      =      -0.5182394932327061 [Eh]
	 Correlation Energy        =      -0.6663704591964116 [Eh]
	 Total Energy              =    -154.8120383562582560 [Eh]
	-----------------------------------------------------------
	 ================> DF-SCS-MP2 Energies <================== 
	-----------------------------------------------------------
	 SCS Same-Spin Scale       =       0.3333333333333333 [-]
	 SCS Opposite-Spin Scale   =       1.2000000000000000 [-]
	 SCS Same-Spin Energy      =      -0.0493769886545685 [Eh]
	 SCS Opposite-Spin Energy  =      -0.6218873918792474 [Eh]
	 SCS Correlation Energy    =      -0.6712643805338159 [Eh]
	 SCS Total Energy          =    -154.8169322775956687 [Eh]
	-----------------------------------------------------------


*** tstop() called on Moses-MBP.lan at Thu Feb 27 17:38:58 2025
Module time:
	user time   =      20.87 seconds =       0.35 minutes
	system time =       2.31 seconds =       0.04 minutes
	total time  =          3 seconds =       0.05 minutes
Total time:
	user time   =     183.91 seconds =       3.07 minutes
	system time =      16.72 seconds =       0.28 minutes
	total time  =         26 seconds =       0.43 minutes

    Psi4 stopped on: Thursday, 27 February 2025 05:38PM
    Psi4 wall time for execution: 0:00:13.16


    -----------------------------------------------------------------------
          Psi4: An Open-Source Ab Initio Electronic Structure Package
                               Psi4 1.9.1 release

                         Git: Rev {} zzzzzzz 


    D. G. A. Smith, L. A. Burns, A. C. Simmonett, R. M. Parrish,
    M. C. Schieber, R. Galvelis, P. Kraus, H. Kruse, R. Di Remigio,
    A. Alenaizan, A. M. James, S. Lehtola, J. P. Misiewicz, M. Scheurer,
    R. A. Shaw, J. B. Schriber, Y. Xie, Z. L. Glick, D. A. Sirianni,
    J. S. O'Brien, J. M. Waldrop, A. Kumar, E. G. Hohenstein,
    B. P. Pritchard, B. R. Brooks, H. F. Schaefer III, A. Yu. Sokolov,
    K. Patkowski, A. E. DePrince III, U. Bozkaya, R. A. King,
    F. A. Evangelista, J. M. Turney, T. D. Crawford, C. D. Sherrill,
    J. Chem. Phys. 152(18) 184108 (2020). https://doi.org/10.1063/5.0006002

                            Additional Code Authors
    E. T. Seidl, C. L. Janssen, E. F. Valeev, M. L. Leininger,
    J. F. Gonthier, R. M. Richard, H. R. McAlexander, M. Saitow, X. Wang,
    P. Verma, M. H. Lechner, A. Jiang, S. Behnle, A. G. Heide,
    M. F. Herbst, and D. L. Poole

             Previous Authors, Complete List of Code Contributors,
                       and Citations for Specific Modules
    https://github.com/psi4/psi4/blob/master/codemeta.json
    https://github.com/psi4/psi4/graphs/contributors
    http://psicode.org/psi4manual/master/introduction.html#citing-psifour

    -----------------------------------------------------------------------


    Psi4 started on: Thursday, 27 February 2025 05:38PM

    Process ID: 31478
    Host:       Moses-MBP.lan
    PSIDATADIR: /Users/moseschung/miniconda3/envs/psi4/share/psi4
    Memory:     9.3 GiB
    Threads:    10
    
  ==> Input QCSchema <==

--------------------------------------------------------------------------
{'driver': 'energy',
 'extras': {'psiapi': True, 'wfn_qcvars_only': True},
 'id': None,
 'keywords': {'SCF_TYPE': 'DF', 'function_kwargs': {}},
 'model': {'basis': 'aug-cc-pvtz', 'method': 'mp2'},
 'molecule': {'atom_labels': ['', '', '', '', '', '', '', '', '', '', '', '', '', '', '', '', '', ''],
              'atomic_numbers': [6, 6, 8, 1, 1, 1, 1, 1, 1, 6, 6, 8, 1, 1, 1, 1, 1, 1],
              'extras': {},
              'fix_com': True,
              'fix_orientation': True,
              'fix_symmetry': 'c1',
              'fragment_charges': [0.0, 0.0],
              'fragment_multiplicities': [1, 1],
              'fragments': [[0, 1, 2, 3, 4, 5, 6, 7, 8], [9, 10, 11, 12, 13, 14, 15, 16, 17]],
              'geometry': [-3.8696715555972636, 2.2687806197850375, -0.13501148303333452, -4.239256632309804,
                           -0.4151085790748193, -0.9860269669197619, -3.0537539550389647, -2.010411594734067,
                           0.7927382199034335, -3.272782661610154, -3.7363324801849593, 0.28523526137660454,
                           -4.793774087111898, 3.5845610161449395, -1.4254109678022127, -1.8595509786865176,
                           2.733054203465893, -0.05887063798638772, -4.657555069084396, 2.5390133454516324,
                           1.7522013066776347, -3.424486095509658, -0.6817527148291697, -2.8796251412086535,
                           -6.2665529299748375, -0.845384100032563, -1.1288751441953702, 2.8123792370342366,
                           0.47421165337463833, 2.218340050044317, 3.0543133139721004, -0.4821900770763213,
                           -0.4525950762255262, 5.46577392540758, -0.03904174175195873, -1.4966819886238545,
                           5.840368666078709, 1.7283378451653533, -1.323019937146531, 0.951698202124695,
                           0.017302332404691874, 2.9829648143793146, 3.0432281805201646, 2.5300598230692133,
                           2.2875153645928266, 4.258187908634641, -0.36747614235652926, 3.4261396058694333,
                           1.564012930473917, 0.34773795297612226, -1.6441410976455797, 2.7744618823269254,
                           -2.5276560914376307, -0.5108080895202546],
              'mass_numbers': [12, 12, 16, 1, 1, 1, 1, 1, 1, 12, 12, 16, 1, 1, 1, 1, 1, 1],
              'masses': [12.0, 12.0, 15.99491461957, 1.00782503223, 1.00782503223, 1.00782503223, 1.00782503223,
                         1.00782503223, 1.00782503223, 12.0, 12.0, 15.99491461957, 1.00782503223, 1.00782503223,
                         1.00782503223, 1.00782503223, 1.00782503223, 1.00782503223],
              'molecular_charge': 0.0,
              'molecular_multiplicity': 1,
              'name': 'dimer',
              'provenance': {'creator': 'QCElemental',
                             'routine': 'qcelemental.molparse.from_string',
                             'version': '0.29.0'},
              'real': [True, True, True, True, True, True, True, True, True, True, True, True, True, True, True, True,
                       True, True],
              'schema_name': 'qcschema_molecule',
              'schema_version': 2,
              'symbols': ['C', 'C', 'O', 'H', 'H', 'H', 'H', 'H', 'H', 'C', 'C', 'O', 'H', 'H', 'H', 'H', 'H', 'H'],
              'validated': True},
 'protocols': {'stdout': True},
 'provenance': {'creator': 'QCElemental', 'routine': 'qcelemental.models.results', 'version': '0.29.0'},
 'schema_name': 'qcschema_input',
 'schema_version': 1}
--------------------------------------------------------------------------

Scratch directory: /tmp/
   => Libint2 <=

    Primary   basis highest AM E, G, H:  6, 6, 3
    Auxiliary basis highest AM E, G, H:  7, 7, 4
    Onebody   basis highest AM E, G, H:  -, -, -
    Solid Harmonics ordering:            Gaussian

*** tstart() called on Moses-MBP.lan
*** at Thu Feb 27 17:38:58 2025

   => Loading Basis Set <=

    Name: AUG-CC-PVTZ
    Role: ORBITAL
    Keyword: BASIS
    atoms 1-2, 10-11 entry C          line   239 file /Users/moseschung/miniconda3/envs/psi4/share/psi4/basis/aug-cc-pvtz.gbs 
    atoms 3, 12      entry O          line   331 file /Users/moseschung/miniconda3/envs/psi4/share/psi4/basis/aug-cc-pvtz.gbs 
    atoms 4-9, 13-18 entry H          line    40 file /Users/moseschung/miniconda3/envs/psi4/share/psi4/basis/aug-cc-pvtz.gbs 


         ---------------------------------------------------------
                                   SCF
               by Justin Turney, Rob Parrish, Andy Simmonett
                          and Daniel G. A. Smith
                              RHF Reference
                       10 Threads,   9536 MiB Core
         ---------------------------------------------------------

  ==> Geometry <==

    Molecular point group: c1
    Full point group: C1

    Geometry (in Bohr), charge = 0, multiplicity = 1:

       Center              X                  Y                   Z               Mass       
    ------------   -----------------  -----------------  -----------------  -----------------
         C           -3.869671555597     2.268780619785    -0.135011483033    12.000000000000
         C           -4.239256632310    -0.415108579075    -0.986026966920    12.000000000000
         O           -3.053753955039    -2.010411594734     0.792738219903    15.994914619570
         H           -3.272782661610    -3.736332480185     0.285235261377     1.007825032230
         H           -4.793774087112     3.584561016145    -1.425410967802     1.007825032230
         H           -1.859550978687     2.733054203466    -0.058870637986     1.007825032230
         H           -4.657555069084     2.539013345452     1.752201306678     1.007825032230
         H           -3.424486095510    -0.681752714829    -2.879625141209     1.007825032230
         H           -6.266552929975    -0.845384100033    -1.128875144195     1.007825032230
         C            2.812379237034     0.474211653375     2.218340050044    12.000000000000
         C            3.054313313972    -0.482190077076    -0.452595076226    12.000000000000
         O            5.465773925408    -0.039041741752    -1.496681988624    15.994914619570
         H            5.840368666079     1.728337845165    -1.323019937147     1.007825032230
         H            0.951698202125     0.017302332405     2.982964814379     1.007825032230
         H            3.043228180520     2.530059823069     2.287515364593     1.007825032230
         H            4.258187908635    -0.367476142357     3.426139605869     1.007825032230
         H            1.564012930474     0.347737952976    -1.644141097646     1.007825032230
         H            2.774461882327    -2.527656091438    -0.510808089520     1.007825032230

  Running in c1 symmetry.

  Rotational constants: A =      0.16874  B =      0.03816  C =      0.03747 [cm^-1]
  Rotational constants: A =   5058.84549  B =   1144.06638  C =   1123.36838 [MHz]
  Nuclear repulsion =  250.976171994501982

  Charge       = 0
  Multiplicity = 1
  Electrons    = 52
  Nalpha       = 26
  Nbeta        = 26

  ==> Algorithm <==

  SCF Algorithm Type is DF.
  DIIS enabled.
  MOM disabled.
  Fractional occupation disabled.
  Guess Type is SAD.
  Energy threshold   = 1.00e-08
  Density threshold  = 1.00e-08
  Integral threshold = 1.00e-12

  ==> Primary Basis <==

  Basis Set: AUG-CC-PVTZ
    Blend: AUG-CC-PVTZ
    Number of shells: 192
    Number of basis functions: 552
    Number of Cartesian functions: 630
    Spherical Harmonics?: true
    Max angular momentum: 3

   => Loading Basis Set <=

    Name: (AUG-CC-PVTZ AUX)
    Role: JKFIT
    Keyword: DF_BASIS_SCF
    atoms 1-2, 10-11 entry C          line   162 file /Users/moseschung/miniconda3/envs/psi4/share/psi4/basis/aug-cc-pvtz-jkfit.gbs 
    atoms 3, 12      entry O          line   286 file /Users/moseschung/miniconda3/envs/psi4/share/psi4/basis/aug-cc-pvtz-jkfit.gbs 
    atoms 4-9, 13-18 entry H          line    70 file /Users/moseschung/miniconda3/envs/psi4/share/psi4/basis/aug-cc-pvtz-jkfit.gbs 

  ==> Integral Setup <==

  DFHelper Memory: AOs need 2.614 GiB; user supplied 6.985 GiB. 
  Using in-core AOs.

  ==> MemDFJK: Density-Fitted J/K Matrices <==

    J tasked:                   Yes
    K tasked:                   Yes
    wK tasked:                   No
    OpenMP threads:              10
    Memory [MiB]:              7152
    Algorithm:                 Core
    Schwarz Cutoff:           1E-12
    Mask sparsity (%):       5.6350
    Fitting Condition:        1E-10

   => Auxiliary Basis Set <=

  Basis Set: (AUG-CC-PVTZ AUX)
    Blend: AUG-CC-PVTZ-JKFIT
    Number of shells: 348
    Number of basis functions: 1176
    Number of Cartesian functions: 1446
    Spherical Harmonics?: true
    Max angular momentum: 4

  Minimum eigenvalue in the overlap matrix is 8.3943282104E-06.
  Reciprocal condition number of the overlap matrix is 4.4493472959E-07.
    Using symmetric orthogonalization.

  ==> Pre-Iterations <==

  SCF Guess: Superposition of Atomic Densities via on-the-fly atomic UHF (no occupation information).

   -------------------------
    Irrep   Nso     Nmo    
   -------------------------
     A        552     552 
   -------------------------
    Total     552     552
   -------------------------

  ==> Iterations <==

                           Total Energy        Delta E     RMS |[F,P]|

   @DF-RHF iter SAD:  -307.04843054786556   -3.07048e+02   0.00000e+00 
   @DF-RHF iter   1:  -308.00400970930093   -9.55579e-01   1.32843e-03 ADIIS/DIIS
   @DF-RHF iter   2:  -308.22770967762045   -2.23700e-01   7.07147e-04 ADIIS/DIIS
   @DF-RHF iter   3:  -308.28541833547399   -5.77087e-02   1.19231e-04 ADIIS/DIIS
   @DF-RHF iter   4:  -308.28861376928364   -3.19543e-03   4.46025e-05 DIIS
   @DF-RHF iter   5:  -308.28896338325148   -3.49614e-04   8.46103e-06 DIIS
   @DF-RHF iter   6:  -308.28898334452481   -1.99613e-05   1.94213e-06 DIIS
   @DF-RHF iter   7:  -308.28898464629486   -1.30177e-06   5.75724e-07 DIIS
   @DF-RHF iter   8:  -308.28898474756772   -1.01273e-07   1.72492e-07 DIIS
   @DF-RHF iter   9:  -308.28898475829686   -1.07291e-08   4.80280e-08 DIIS
   @DF-RHF iter  10:  -308.28898475908687   -7.90010e-10   1.74217e-08 DIIS
   @DF-RHF iter  11:  -308.28898475914804   -6.11635e-11   4.90618e-09 DIIS
  Energy and wave function converged.


  ==> Post-Iterations <==

    Orbital Energies [Eh]
    ---------------------

    Doubly Occupied:                                                      

       1A    -20.562345     2A    -20.547985     3A    -11.279490  
       4A    -11.263639     5A    -11.216587     6A    -11.205130  
       7A     -1.369288     8A     -1.354658     9A     -1.020530  
      10A     -1.003624    11A     -0.839992    12A     -0.838116  
      13A     -0.710704    14A     -0.678684    15A     -0.651742  
      16A     -0.616002    17A     -0.604585    18A     -0.581170  
      19A     -0.540613    20A     -0.534196    21A     -0.529368  
      22A     -0.515777    23A     -0.494012    24A     -0.472104  
      25A     -0.446682    26A     -0.433061  

    Virtual:                                                              

      27A      0.026848    28A      0.032892    29A      0.038010  
      30A      0.039906    31A      0.051126    32A      0.053931  
      33A      0.058102    34A      0.060349    35A      0.066192  
      36A      0.078579    37A      0.083710    38A      0.088888  
      39A      0.108683    40A      0.115144    41A      0.119059  
      42A      0.126474    43A      0.129985    44A      0.131685  
      45A      0.132656    46A      0.143595    47A      0.145763  
      48A      0.156740    49A      0.158079    50A      0.162711  
      51A      0.168303    52A      0.181988    53A      0.183038  
      54A      0.191312    55A      0.195335    56A      0.206740  
      57A      0.213306    58A      0.222688    59A      0.236360  
      60A      0.240012    61A      0.247628    62A      0.250421  
      63A      0.270703    64A      0.283419    65A      0.283902  
      66A      0.288608    67A      0.294194    68A      0.299571  
      69A      0.302306    70A      0.305882    71A      0.311223  
      72A      0.318811    73A      0.323748    74A      0.330649  
      75A      0.340118    76A      0.343310    77A      0.348335  
      78A      0.351007    79A      0.358408    80A      0.360907  
      81A      0.370091    82A      0.374788    83A      0.382521  
      84A      0.387703    85A      0.394043    86A      0.396345  
      87A      0.400825    88A      0.403733    89A      0.414364  
      90A      0.416110    91A      0.420360    92A      0.426844  
      93A      0.433563    94A      0.439069    95A      0.445430  
      96A      0.453222    97A      0.459043    98A      0.463031  
      99A      0.467707   100A      0.473135   101A      0.475180  
     102A      0.481288   103A      0.484557   104A      0.493658  
     105A      0.498225   106A      0.500419   107A      0.507763  
     108A      0.511880   109A      0.518738   110A      0.523998  
     111A      0.530782   112A      0.532582   113A      0.540146  
     114A      0.545789   115A      0.556385   116A      0.560321  
     117A      0.563358   118A      0.571674   119A      0.575998  
     120A      0.583809   121A      0.585637   122A      0.599461  
     123A      0.603616   124A      0.621756   125A      0.625422  
     126A      0.638472   127A      0.642379   128A      0.650063  
     129A      0.654539   130A      0.669368   131A      0.677074  
     132A      0.692341   133A      0.697698   134A      0.709207  
     135A      0.733726   136A      0.741734   137A      0.753654  
     138A      0.759600   139A      0.775211   140A      0.781638  
     141A      0.785357   142A      0.798558   143A      0.810400  
     144A      0.819229   145A      0.821477   146A      0.844829  
     147A      0.850986   148A      0.852369   149A      0.861388  
     150A      0.868671   151A      0.871934   152A      0.874234  
     153A      0.879844   154A      0.890022   155A      0.906583  
     156A      0.911071   157A      0.921331   158A      0.926867  
     159A      0.934581   160A      0.936982   161A      0.944489  
     162A      0.948827   163A      0.956493   164A      0.962899  
     165A      0.973525   166A      0.975312   167A      0.976410  
     168A      0.988905   169A      0.996307   170A      1.000022  
     171A      1.005241   172A      1.019425   173A      1.021910  
     174A      1.025200   175A      1.037000   176A      1.048496  
     177A      1.051202   178A      1.056516   179A      1.062848  
     180A      1.069836   181A      1.074679   182A      1.086730  
     183A      1.093625   184A      1.097032   185A      1.101910  
     186A      1.109030   187A      1.119538   188A      1.122364  
     189A      1.127966   190A      1.130532   191A      1.136361  
     192A      1.142743   193A      1.150242   194A      1.162666  
     195A      1.175368   196A      1.181293   197A      1.188868  
     198A      1.199666   199A      1.208465   200A      1.216276  
     201A      1.228617   202A      1.231573   203A      1.238362  
     204A      1.249131   205A      1.256510   206A      1.259657  
     207A      1.263796   208A      1.278391   209A      1.283793  
     210A      1.303972   211A      1.313138   212A      1.317973  
     213A      1.322980   214A      1.331731   215A      1.340798  
     216A      1.346957   217A      1.353617   218A      1.360220  
     219A      1.385956   220A      1.389048   221A      1.400096  
     222A      1.407195   223A      1.412801   224A      1.423132  
     225A      1.437952   226A      1.448500   227A      1.461376  
     228A      1.467360   229A      1.480526   230A      1.490685  
     231A      1.495066   232A      1.506962   233A      1.518990  
     234A      1.525206   235A      1.539904   236A      1.544495  
     237A      1.555223   238A      1.571030   239A      1.576175  
     240A      1.591029   241A      1.610540   242A      1.628974  
     243A      1.631799   244A      1.640349   245A      1.644291  
     246A      1.661339   247A      1.665810   248A      1.678469  
     249A      1.684659   250A      1.697383   251A      1.704713  
     252A      1.710073   253A      1.713825   254A      1.723801  
     255A      1.726911   256A      1.741530   257A      1.749776  
     258A      1.759998   259A      1.765270   260A      1.766895  
     261A      1.773922   262A      1.783070   263A      1.798368  
     264A      1.803997   265A      1.822387   266A      1.829068  
     267A      1.839541   268A      1.853569   269A      1.857269  
     270A      1.873141   271A      1.878288   272A      1.885651  
     273A      1.899214   274A      1.917364   275A      1.923570  
     276A      1.947437   277A      1.954637   278A      1.970419  
     279A      1.983713   280A      1.991439   281A      1.994288  
     282A      2.011182   283A      2.015863   284A      2.030965  
     285A      2.054381   286A      2.058806   287A      2.068951  
     288A      2.081388   289A      2.090813   290A      2.106302  
     291A      2.113940   292A      2.120691   293A      2.125499  
     294A      2.142800   295A      2.145605   296A      2.174596  
     297A      2.190847   298A      2.207318   299A      2.210776  
     300A      2.225511   301A      2.248614   302A      2.254393  
     303A      2.268016   304A      2.283525   305A      2.301901  
     306A      2.309559   307A      2.335012   308A      2.351067  
     309A      2.354692   310A      2.375250   311A      2.393718  
     312A      2.403358   313A      2.443050   314A      2.453198  
     315A      2.458277   316A      2.470965   317A      2.477118  
     318A      2.514068   319A      2.540312   320A      2.562114  
     321A      2.601648   322A      2.618295   323A      2.638344  
     324A      2.679024   325A      2.690851   326A      2.706027  
     327A      2.753880   328A      2.770661   329A      2.816887  
     330A      2.828813   331A      2.882174   332A      2.897507  
     333A      2.908126   334A      2.923824   335A      2.944127  
     336A      2.951907   337A      2.979713   338A      2.994902  
     339A      3.012967   340A      3.026373   341A      3.029317  
     342A      3.058061   343A      3.088964   344A      3.113227  
     345A      3.168789   346A      3.221442   347A      3.236499  
     348A      3.257076   349A      3.298728   350A      3.355448  
     351A      3.413951   352A      3.440657   353A      3.463205  
     354A      3.477194   355A      3.483201   356A      3.496763  
     357A      3.501474   358A      3.521905   359A      3.536246  
     360A      3.569563   361A      3.603597   362A      3.627235  
     363A      3.630241   364A      3.648478   365A      3.652196  
     366A      3.669303   367A      3.680311   368A      3.696731  
     369A      3.712937   370A      3.726201   371A      3.747848  
     372A      3.754570   373A      3.779741   374A      3.789321  
     375A      3.815760   376A      3.822015   377A      3.832623  
     378A      3.839815   379A      3.846245   380A      3.854759  
     381A      3.880076   382A      3.901661   383A      3.916354  
     384A      3.924081   385A      3.951833   386A      3.965678  
     387A      3.982103   388A      3.998198   389A      4.002279  
     390A      4.020012   391A      4.027700   392A      4.038922  
     393A      4.050561   394A      4.058208   395A      4.074130  
     396A      4.079177   397A      4.089843   398A      4.099723  
     399A      4.114776   400A      4.125029   401A      4.146743  
     402A      4.163689   403A      4.167092   404A      4.185474  
     405A      4.198579   406A      4.210187   407A      4.225876  
     408A      4.236505   409A      4.247595   410A      4.260712  
     411A      4.279128   412A      4.295864   413A      4.325290  
     414A      4.350365   415A      4.358302   416A      4.365321  
     417A      4.377391   418A      4.393447   419A      4.422109  
     420A      4.455010   421A      4.475095   422A      4.503873  
     423A      4.510936   424A      4.536950   425A      4.546496  
     426A      4.558128   427A      4.591914   428A      4.598791  
     429A      4.600526   430A      4.611469   431A      4.628579  
     432A      4.638755   433A      4.655535   434A      4.689937  
     435A      4.703533   436A      4.711947   437A      4.731511  
     438A      4.738722   439A      4.779770   440A      4.793943  
     441A      4.801549   442A      4.821832   443A      4.846627  
     444A      4.863898   445A      4.882042   446A      4.892185  
     447A      4.908461   448A      4.919038   449A      4.935756  
     450A      4.950362   451A      4.953619   452A      4.977120  
     453A      5.007617   454A      5.012792   455A      5.022425  
     456A      5.033272   457A      5.069692   458A      5.074846  
     459A      5.091904   460A      5.121239   461A      5.140663  
     462A      5.158782   463A      5.171497   464A      5.182078  
     465A      5.201152   466A      5.228316   467A      5.247851  
     468A      5.249427   469A      5.258158   470A      5.305672  
     471A      5.326558   472A      5.345639   473A      5.362602  
     474A      5.380415   475A      5.387848   476A      5.418840  
     477A      5.436703   478A      5.462193   479A      5.476754  
     480A      5.491694   481A      5.503861   482A      5.518142  
     483A      5.536926   484A      5.575330   485A      5.585090  
     486A      5.602282   487A      5.629169   488A      5.637821  
     489A      5.673774   490A      5.675013   491A      5.723347  
     492A      5.756500   493A      5.757268   494A      5.765459  
     495A      5.826470   496A      5.831879   497A      5.854711  
     498A      5.879132   499A      6.017793   500A      6.032092  
     501A      6.041090   502A      6.093905   503A      6.123891  
     504A      6.169872   505A      6.183009   506A      6.209268  
     507A      6.227232   508A      6.237161   509A      6.258919  
     510A      6.293026   511A      6.325867   512A      6.337771  
     513A      6.416651   514A      6.469203   515A      6.697819  
     516A      6.727194   517A      6.743130   518A      6.775371  
     519A      6.838761   520A      6.863615   521A      6.880029  
     522A      6.903002   523A      6.964189   524A      6.988322  
     525A      7.001336   526A      7.007711   527A      7.146418  
     528A      7.175136   529A      7.357856   530A      7.364472  
     531A      7.393389   532A      7.415738   533A      7.466207  
     534A      7.544290   535A      7.554612   536A      7.561070  
     537A      7.651792   538A      7.673642   539A      7.855747  
     540A      7.874227   541A      7.951627   542A      7.971252  
     543A      8.250867   544A      8.298038   545A      8.643442  
     546A      8.667983   547A     16.163289   548A     16.448334  
     549A     17.883656   550A     18.058513   551A     18.547118  
     552A     18.817489  

    Final Occupation by Irrep:
              A 
    DOCC [    26 ]
    NA   [    26 ]
    NB   [    26 ]

  @DF-RHF Final Energy:  -308.28898475914804

   => Energetics <=

    Nuclear Repulsion Energy =            250.9761719945019820
    One-Electron Energy =                -917.9101531639694258
    Two-Electron Energy =                 358.6449964103193793
    Total Energy =                       -308.2889847591480361

Computation Completed


Properties will be evaluated at   0.000000,   0.000000,   0.000000 [a0]

Properties computed using the SCF density matrix


 Multipole Moments:

 ------------------------------------------------------------------------------------
     Multipole            Electronic (a.u.)      Nuclear  (a.u.)        Total (a.u.)
 ------------------------------------------------------------------------------------

 L = 1.  Multiply by 2.5417464519 to convert [e a0] to [Debye]
 Dipole X            :         -0.8836000            0.0000019           -0.8835981
 Dipole Y            :          0.2228680            0.0000000            0.2228680
 Dipole Z            :         -0.1737119           -0.0000057           -0.1737176
 Magnitude           :                                                    0.9276818

 ------------------------------------------------------------------------------------

*** tstop() called on Moses-MBP.lan at Thu Feb 27 17:39:10 2025
Module time:
	user time   =      89.56 seconds =       1.49 minutes
	system time =       7.89 seconds =       0.13 minutes
	total time  =         12 seconds =       0.20 minutes
Total time:
	user time   =     273.69 seconds =       4.56 minutes
	system time =      24.69 seconds =       0.41 minutes
	total time  =         38 seconds =       0.63 minutes

*** tstart() called on Moses-MBP.lan
*** at Thu Feb 27 17:39:10 2025


  //>>>>>>>>>>>>>>>>>>>>>>>>>>>>>>>>>>>//
  //               DFMP2               //
  //<<<<<<<<<<<<<<<<<<<<<<<<<<<<<<<<<<<//

   => Loading Basis Set <=

    Name: (AUG-CC-PVTZ AUX)
    Role: RIFIT
    Keyword: DF_BASIS_MP2
    atoms 1-2, 10-11 entry C          line   148 file /Users/moseschung/miniconda3/envs/psi4/share/psi4/basis/aug-cc-pvtz-ri.gbs 
    atoms 3, 12      entry O          line   264 file /Users/moseschung/miniconda3/envs/psi4/share/psi4/basis/aug-cc-pvtz-ri.gbs 
    atoms 4-9, 13-18 entry H          line    30 file /Users/moseschung/miniconda3/envs/psi4/share/psi4/basis/aug-cc-pvtz-ri.gbs 

	 --------------------------------------------------------
	                          DF-MP2                         
	      2nd-Order Density-Fitted Moller-Plesset Theory     
	              RMP2 Wavefunction,  10 Threads             
	                                                         
	        Rob Parrish, Justin Turney, Andy Simmonett,      
	           Ed Hohenstein, and C. David Sherrill          
	 --------------------------------------------------------

   => Auxiliary Basis Set <=

  Basis Set: (AUG-CC-PVTZ AUX)
    Blend: AUG-CC-PVTZ-RI
    Number of shells: 336
    Number of basis functions: 1188
    Number of Cartesian functions: 1476
    Spherical Harmonics?: true
    Max angular momentum: 4

	 --------------------------------------------------------
	                 NBF =   552, NAUX =  1188
	 --------------------------------------------------------
	   CLASS    FOCC     OCC    AOCC    AVIR     VIR    FVIR
	   PAIRS       0      26      26     526     526       0
	 --------------------------------------------------------

	-----------------------------------------------------------
	 ==================> DF-MP2 Energies <==================== 
	-----------------------------------------------------------
	 Reference Energy          =    -308.2889847591480361 [Eh]
	 Singles Energy            =      -0.0000000000000000 [Eh]
	 Same-Spin Energy          =      -0.2987614737267735 [Eh]
	 Opposite-Spin Energy      =      -1.0389988791962002 [Eh]
	 Correlation Energy        =      -1.3377603529229736 [Eh]
	 Total Energy              =    -309.6267451120710348 [Eh]
	-----------------------------------------------------------
	 ================> DF-SCS-MP2 Energies <================== 
	-----------------------------------------------------------
	 SCS Same-Spin Scale       =       0.3333333333333333 [-]
	 SCS Opposite-Spin Scale   =       1.2000000000000000 [-]
	 SCS Same-Spin Energy      =      -0.0995871579089245 [Eh]
	 SCS Opposite-Spin Energy  =      -1.2467986550354402 [Eh]
	 SCS Correlation Energy    =      -1.3463858129443647 [Eh]
	 SCS Total Energy          =    -309.6353705720924268 [Eh]
	-----------------------------------------------------------


*** tstop() called on Moses-MBP.lan at Thu Feb 27 17:39:15 2025
Module time:
	user time   =      32.89 seconds =       0.55 minutes
	system time =       2.63 seconds =       0.04 minutes
	total time  =          5 seconds =       0.08 minutes
Total time:
	user time   =     306.59 seconds =       5.11 minutes
	system time =      27.33 seconds =       0.46 minutes
	total time  =         43 seconds =       0.72 minutes

    Psi4 stopped on: Thursday, 27 February 2025 05:39PM
    Psi4 wall time for execution: 0:00:16.57


  //>>>>>>>>>>>>>>>>>>>>>>>>>>>>>>>>>>>//
  //          ManyBody Results         //
  //<<<<<<<<<<<<<<<<<<<<<<<<<<<<<<<<<<<//


   ==> N-Body: Counterpoise Corrected (CP) energies <==

        n-Body     Total Energy            Interaction Energy                          N-body Contribution to Interaction Energy
                   [Eh]                    [Eh]                  [kcal/mol]            [Eh]                  [kcal/mol]
             1  N/A                         0.000000000000        0.000000000000        0.000000000000        0.000000000000
  FULL/RTN   2  N/A                        -0.003052844917       -1.915689107583       -0.003052844917       -1.915689107583


    Psi4 stopped on: Thursday, 27 February 2025 05:39PM
    Psi4 wall time for execution: 0:00:44.37

*** Psi4 exiting successfully. Buy a developer a beer!
