
    -----------------------------------------------------------------------
          Psi4: An Open-Source Ab Initio Electronic Structure Package
                               Psi4 1.9.1 release

                         Git: Rev {} zzzzzzz 


    D. G. A. Smith, L. A. Burns, A. C. Simmonett, R. M. Parrish,
    M. C. Schieber, R. Galvelis, P. Kraus, H. Kruse, R. Di Remigio,
    A. Alenaizan, A. M. James, S. Lehtola, J. P. Misiewicz, M. Scheurer,
    R. A. Shaw, J. B. Schriber, Y. Xie, Z. L. Glick, D. A. Sirianni,
    J. S. O'Brien, J. M. Waldrop, A. Kumar, E. G. Hohenstein,
    B. P. Pritchard, B. R. Brooks, H. F. Schaefer III, A. Yu. Sokolov,
    K. Patkowski, A. E. DePrince III, U. Bozkaya, R. A. King,
    F. A. Evangelista, J. M. Turney, T. D. Crawford, C. D. Sherrill,
    J. Chem. Phys. 152(18) 184108 (2020). https://doi.org/10.1063/5.0006002

                            Additional Code Authors
    E. T. Seidl, C. L. Janssen, E. F. Valeev, M. L. Leininger,
    J. F. Gonthier, R. M. Richard, H. R. McAlexander, M. Saitow, X. Wang,
    P. Verma, M. H. Lechner, A. Jiang, S. Behnle, A. G. Heide,
    M. F. Herbst, and D. L. Poole

             Previous Authors, Complete List of Code Contributors,
                       and Citations for Specific Modules
    https://github.com/psi4/psi4/blob/master/codemeta.json
    https://github.com/psi4/psi4/graphs/contributors
    http://psicode.org/psi4manual/master/introduction.html#citing-psifour

    -----------------------------------------------------------------------


    Psi4 started on: Thursday, 27 February 2025 05:52PM

    Process ID: 32346
    Host:       Moses-MBP.lan
    PSIDATADIR: /Users/moseschung/miniconda3/envs/psi4/share/psi4
    Memory:     500.0 MiB
    Threads:    10
    
  ==> Input File <==

--------------------------------------------------------------------------
MEMORY 10 GB

molecule dimer {
0 1
C   -1.287673   1.107348  -0.161796
C   -1.771164  -0.320131  -0.207370
O   -3.119167  -0.452822   0.179568
H   -3.222451  -0.056888   1.048504
H   -0.253344   1.189665  -0.507969
H   -1.328025   1.495824   0.861721
H   -1.916942   1.744166  -0.786715
H   -1.120210  -0.961277   0.408171
H   -1.713170  -0.709417  -1.227751
--
0 1
C    1.828783  -1.317613  -0.274810
C    2.034651  -0.103874   0.586182
O    2.236267   1.002002  -0.266674
H    2.411434   1.781883   0.263575
H    1.643646  -2.202420   0.336516
H    2.707555  -1.500500  -0.895422
H    0.972858  -1.172822  -0.937995
H    2.898203  -0.250761   1.249946
H    1.156065   0.054726   1.231028

units ang
no_reorient
no_com
symmetry c1
}

set {
basis        aug-cc-pVTZ
scf_type     df
}

energy("mp2", bsse_type="cp")
--------------------------------------------------------------------------

  Memory set to   9.313 GiB by Python driver.

Scratch directory: /tmp/

  //>>>>>>>>>>>>>>>>>>>>>>>>>>>>>>>>>>>>>//
  // ManyBody Setup: N-Body Levels [1, 2]//
  //<<<<<<<<<<<<<<<<<<<<<<<<<<<<<<<<<<<<<//

        Number of 1-body computations:     2
        Number of 2-body computations:     1

    -----------------------------------------------------------------------
          Psi4: An Open-Source Ab Initio Electronic Structure Package
                               Psi4 1.9.1 release

                         Git: Rev {} zzzzzzz 


    D. G. A. Smith, L. A. Burns, A. C. Simmonett, R. M. Parrish,
    M. C. Schieber, R. Galvelis, P. Kraus, H. Kruse, R. Di Remigio,
    A. Alenaizan, A. M. James, S. Lehtola, J. P. Misiewicz, M. Scheurer,
    R. A. Shaw, J. B. Schriber, Y. Xie, Z. L. Glick, D. A. Sirianni,
    J. S. O'Brien, J. M. Waldrop, A. Kumar, E. G. Hohenstein,
    B. P. Pritchard, B. R. Brooks, H. F. Schaefer III, A. Yu. Sokolov,
    K. Patkowski, A. E. DePrince III, U. Bozkaya, R. A. King,
    F. A. Evangelista, J. M. Turney, T. D. Crawford, C. D. Sherrill,
    J. Chem. Phys. 152(18) 184108 (2020). https://doi.org/10.1063/5.0006002

                            Additional Code Authors
    E. T. Seidl, C. L. Janssen, E. F. Valeev, M. L. Leininger,
    J. F. Gonthier, R. M. Richard, H. R. McAlexander, M. Saitow, X. Wang,
    P. Verma, M. H. Lechner, A. Jiang, S. Behnle, A. G. Heide,
    M. F. Herbst, and D. L. Poole

             Previous Authors, Complete List of Code Contributors,
                       and Citations for Specific Modules
    https://github.com/psi4/psi4/blob/master/codemeta.json
    https://github.com/psi4/psi4/graphs/contributors
    http://psicode.org/psi4manual/master/introduction.html#citing-psifour

    -----------------------------------------------------------------------


    Psi4 started on: Thursday, 27 February 2025 05:52PM

    Process ID: 32346
    Host:       Moses-MBP.lan
    PSIDATADIR: /Users/moseschung/miniconda3/envs/psi4/share/psi4
    Memory:     9.3 GiB
    Threads:    10
    
  ==> Input QCSchema <==

--------------------------------------------------------------------------
{'driver': 'energy',
 'extras': {'psiapi': True, 'wfn_qcvars_only': True},
 'id': None,
 'keywords': {'SCF_TYPE': 'DF', 'function_kwargs': {}},
 'model': {'basis': 'aug-cc-pvtz', 'method': 'mp2'},
 'molecule': {'atom_labels': ['', '', '', '', '', '', '', '', '', '', '', '', '', '', '', '', '', ''],
              'atomic_numbers': [6, 6, 8, 1, 1, 1, 1, 1, 1, 6, 6, 8, 1, 1, 1, 1, 1, 1],
              'extras': {},
              'fix_com': True,
              'fix_orientation': True,
              'fix_symmetry': 'c1',
              'fragment_charges': [0.0, 0.0],
              'fragment_multiplicities': [1, 1],
              'fragments': [[0, 1, 2, 3, 4, 5, 6, 7, 8], [9, 10, 11, 12, 13, 14, 15, 16, 17]],
              'geometry': [-2.4333493091466583, 2.092584445573475, -0.30575012819457476, -3.3470148832703885,
                           -0.60495991426894, -0.39187250663618983, -5.894371369565918, -0.8557095635820646,
                           0.3393343408962113, -6.0895498427077035, -0.10750273982504494, 1.981385401447035,
                           -0.47875077552798806, 2.248141031042787, -0.9599222902226875, -2.5096035377611323,
                           2.8266976918868303, 1.628416686555645, -3.62249537838738, 3.2959960573352785,
                           -1.4866758887895555, -2.1168901029991134, -1.8165502607017248, 0.7713314023542471,
                           -3.2374221063505875, -1.340603838743916, -2.320113140256974, 3.4558990128931435,
                           -2.489927709342865, -0.5193156365370657, 3.8449331508888958, -0.19629341155580643,
                           1.1077234396731206, 4.2259321733992, 1.8935093571609949, -0.5039408247803409,
                           4.556949829617272, 3.367270857609171, 0.49808456351754704, 3.1060407872042575,
                           -4.16197061323083, 0.6359230768345665, 5.11653741961397, -2.835534051249471,
                           -1.6921023467096992, 1.8384351789606517, -2.216312373911701, -1.7725536570488156,
                           5.476809925980254, -0.47386961294593044, 2.3620556116115106, 2.184646233227404,
                           0.10341715194180508, 2.3263057727700986],
              'mass_numbers': [12, 12, 16, 1, 1, 1, 1, 1, 1, 12, 12, 16, 1, 1, 1, 1, 1, 1],
              'masses': [12.0, 12.0, 15.99491461957, 1.00782503223, 1.00782503223, 1.00782503223, 1.00782503223,
                         1.00782503223, 1.00782503223, 12.0, 12.0, 15.99491461957, 1.00782503223, 1.00782503223,
                         1.00782503223, 1.00782503223, 1.00782503223, 1.00782503223],
              'molecular_charge': 0.0,
              'molecular_multiplicity': 1,
              'name': 'dimer',
              'provenance': {'creator': 'QCElemental',
                             'routine': 'qcelemental.molparse.from_string',
                             'version': '0.29.0'},
              'real': [False, False, False, False, False, False, False, False, False, True, True, True, True, True,
                       True, True, True, True],
              'schema_name': 'qcschema_molecule',
              'schema_version': 2,
              'symbols': ['C', 'C', 'O', 'H', 'H', 'H', 'H', 'H', 'H', 'C', 'C', 'O', 'H', 'H', 'H', 'H', 'H', 'H'],
              'validated': True},
 'protocols': {'stdout': True},
 'provenance': {'creator': 'QCElemental', 'routine': 'qcelemental.models.results', 'version': '0.29.0'},
 'schema_name': 'qcschema_input',
 'schema_version': 1}
--------------------------------------------------------------------------

Scratch directory: /tmp/
   => Libint2 <=

    Primary   basis highest AM E, G, H:  6, 6, 3
    Auxiliary basis highest AM E, G, H:  7, 7, 4
    Onebody   basis highest AM E, G, H:  -, -, -
    Solid Harmonics ordering:            Gaussian

*** tstart() called on Moses-MBP.lan
*** at Thu Feb 27 17:52:47 2025

   => Loading Basis Set <=

    Name: AUG-CC-PVTZ
    Role: ORBITAL
    Keyword: BASIS
    atoms 1-2, 10-11 entry C          line   239 file /Users/moseschung/miniconda3/envs/psi4/share/psi4/basis/aug-cc-pvtz.gbs 
    atoms 3, 12      entry O          line   331 file /Users/moseschung/miniconda3/envs/psi4/share/psi4/basis/aug-cc-pvtz.gbs 
    atoms 4-9, 13-18 entry H          line    40 file /Users/moseschung/miniconda3/envs/psi4/share/psi4/basis/aug-cc-pvtz.gbs 


         ---------------------------------------------------------
                                   SCF
               by Justin Turney, Rob Parrish, Andy Simmonett
                          and Daniel G. A. Smith
                              RHF Reference
                       10 Threads,   9536 MiB Core
         ---------------------------------------------------------

  ==> Geometry <==

    Molecular point group: c1
    Full point group: C1

    Geometry (in Bohr), charge = 0, multiplicity = 1:

       Center              X                  Y                   Z               Mass       
    ------------   -----------------  -----------------  -----------------  -----------------
      Gh(C)          -2.433349309147     2.092584445573    -0.305750128195    12.000000000000
      Gh(C)          -3.347014883270    -0.604959914269    -0.391872506636    12.000000000000
      Gh(O)          -5.894371369566    -0.855709563582     0.339334340896    15.994914619570
      Gh(H)          -6.089549842708    -0.107502739825     1.981385401447     1.007825032230
      Gh(H)          -0.478750775528     2.248141031043    -0.959922290223     1.007825032230
      Gh(H)          -2.509603537761     2.826697691887     1.628416686556     1.007825032230
      Gh(H)          -3.622495378387     3.295996057335    -1.486675888790     1.007825032230
      Gh(H)          -2.116890102999    -1.816550260702     0.771331402354     1.007825032230
      Gh(H)          -3.237422106351    -1.340603838744    -2.320113140257     1.007825032230
         C            3.455899012893    -2.489927709343    -0.519315636537    12.000000000000
         C            3.844933150889    -0.196293411556     1.107723439673    12.000000000000
         O            4.225932173399     1.893509357161    -0.503940824780    15.994914619570
         H            4.556949829617     3.367270857609     0.498084563518     1.007825032230
         H            3.106040787204    -4.161970613231     0.635923076835     1.007825032230
         H            5.116537419614    -2.835534051249    -1.692102346710     1.007825032230
         H            1.838435178961    -2.216312373912    -1.772553657049     1.007825032230
         H            5.476809925980    -0.473869612946     2.362055611612     1.007825032230
         H            2.184646233227     0.103417151942     2.326305772770     1.007825032230

  Running in c1 symmetry.

  Rotational constants: A =      0.18133  B =      0.03771  C =      0.03330 [cm^-1]
  Rotational constants: A =   5436.13642  B =   1130.60016  C =    998.32715 [MHz]
  Nuclear repulsion =   82.275318672821385

  Charge       = 0
  Multiplicity = 1
  Electrons    = 26
  Nalpha       = 13
  Nbeta        = 13

  ==> Algorithm <==

  SCF Algorithm Type is DF.
  DIIS enabled.
  MOM disabled.
  Fractional occupation disabled.
  Guess Type is SAD.
  Energy threshold   = 1.00e-08
  Density threshold  = 1.00e-08
  Integral threshold = 1.00e-12

  ==> Primary Basis <==

  Basis Set: AUG-CC-PVTZ
    Blend: AUG-CC-PVTZ
    Number of shells: 192
    Number of basis functions: 552
    Number of Cartesian functions: 630
    Spherical Harmonics?: true
    Max angular momentum: 3

   => Loading Basis Set <=

    Name: (AUG-CC-PVTZ AUX)
    Role: JKFIT
    Keyword: DF_BASIS_SCF
    atoms 1-2, 10-11 entry C          line   162 file /Users/moseschung/miniconda3/envs/psi4/share/psi4/basis/aug-cc-pvtz-jkfit.gbs 
    atoms 3, 12      entry O          line   286 file /Users/moseschung/miniconda3/envs/psi4/share/psi4/basis/aug-cc-pvtz-jkfit.gbs 
    atoms 4-9, 13-18 entry H          line    70 file /Users/moseschung/miniconda3/envs/psi4/share/psi4/basis/aug-cc-pvtz-jkfit.gbs 

  ==> Integral Setup <==

  DFHelper Memory: AOs need 2.606 GiB; user supplied 6.985 GiB. 
  Using in-core AOs.

  ==> MemDFJK: Density-Fitted J/K Matrices <==

    J tasked:                   Yes
    K tasked:                   Yes
    wK tasked:                   No
    OpenMP threads:              10
    Memory [MiB]:              7152
    Algorithm:                 Core
    Schwarz Cutoff:           1E-12
    Mask sparsity (%):       5.9166
    Fitting Condition:        1E-10

   => Auxiliary Basis Set <=

  Basis Set: (AUG-CC-PVTZ AUX)
    Blend: AUG-CC-PVTZ-JKFIT
    Number of shells: 348
    Number of basis functions: 1176
    Number of Cartesian functions: 1446
    Spherical Harmonics?: true
    Max angular momentum: 4

  Minimum eigenvalue in the overlap matrix is 5.9966581912E-06.
  Reciprocal condition number of the overlap matrix is 3.1260896355E-07.
    Using symmetric orthogonalization.

  ==> Pre-Iterations <==

  SCF Guess: Superposition of Atomic Densities via on-the-fly atomic UHF (no occupation information).

   -------------------------
    Irrep   Nso     Nmo    
   -------------------------
     A        552     552 
   -------------------------
    Total     552     552
   -------------------------

  ==> Iterations <==

                           Total Energy        Delta E     RMS |[F,P]|

   @DF-RHF iter SAD:  -153.45049203321847   -1.53450e+02   0.00000e+00 
   @DF-RHF iter   1:  -153.99863114994767   -5.48139e-01   9.61068e-04 ADIIS/DIIS
   @DF-RHF iter   2:  -154.11079489155435   -1.12164e-01   5.35255e-04 ADIIS/DIIS
   @DF-RHF iter   3:  -154.14384548304554   -3.30506e-02   8.44234e-05 DIIS
   @DF-RHF iter   4:  -154.14544296542772   -1.59748e-03   3.23464e-05 DIIS
   @DF-RHF iter   5:  -154.14562692979879   -1.83964e-04   5.76446e-06 DIIS
   @DF-RHF iter   6:  -154.14563653864360   -9.60884e-06   1.27695e-06 DIIS
   @DF-RHF iter   7:  -154.14563709487828   -5.56235e-07   3.92496e-07 DIIS
   @DF-RHF iter   8:  -154.14563713879372   -4.39154e-08   1.05070e-07 DIIS
   @DF-RHF iter   9:  -154.14563714298765   -4.19394e-09   2.53110e-08 DIIS
   @DF-RHF iter  10:  -154.14563714325197   -2.64322e-10   4.82076e-09 DIIS
  Energy and wave function converged.


  ==> Post-Iterations <==

    Orbital Energies [Eh]
    ---------------------

    Doubly Occupied:                                                      

       1A    -20.555758     2A    -11.273787     3A    -11.210726  
       4A     -1.361985     5A     -1.013981     6A     -0.833198  
       7A     -0.703573     8A     -0.645476     9A     -0.573906  
      10A     -0.533474    11A     -0.524142    12A     -0.489169  
      13A     -0.439965  

    Virtual:                                                              

      14A      0.022325    15A      0.032622    16A      0.036204  
      17A      0.038625    18A      0.053470    19A      0.053615  
      20A      0.054656    21A      0.059093    22A      0.069363  
      23A      0.078021    24A      0.084320    25A      0.085243  
      26A      0.096440    27A      0.109372    28A      0.109734  
      29A      0.119604    30A      0.121586    31A      0.124300  
      32A      0.131414    33A      0.140954    34A      0.143348  
      35A      0.152452    36A      0.155890    37A      0.159171  
      38A      0.165035    39A      0.167913    40A      0.174453  
      41A      0.183672    42A      0.198961    43A      0.201545  
      44A      0.209597    45A      0.213684    46A      0.229989  
      47A      0.241296    48A      0.243467    49A      0.247195  
      50A      0.264163    51A      0.266079    52A      0.277503  
      53A      0.282686    54A      0.286310    55A      0.295238  
      56A      0.296926    57A      0.305794    58A      0.314630  
      59A      0.316013    60A      0.322752    61A      0.324345  
      62A      0.331245    63A      0.333457    64A      0.337957  
      65A      0.344719    66A      0.350872    67A      0.357528  
      68A      0.365222    69A      0.371852    70A      0.375614  
      71A      0.382810    72A      0.384575    73A      0.391835  
      74A      0.401130    75A      0.406352    76A      0.415883  
      77A      0.422232    78A      0.426303    79A      0.431743  
      80A      0.437763    81A      0.439933    82A      0.448006  
      83A      0.451469    84A      0.460933    85A      0.464205  
      86A      0.472466    87A      0.476239    88A      0.479698  
      89A      0.485603    90A      0.491210    91A      0.501898  
      92A      0.508065    93A      0.514012    94A      0.523389  
      95A      0.527336    96A      0.528834    97A      0.538108  
      98A      0.540917    99A      0.547822   100A      0.551985  
     101A      0.558425   102A      0.573774   103A      0.578785  
     104A      0.583401   105A      0.589241   106A      0.597636  
     107A      0.602922   108A      0.604872   109A      0.608866  
     110A      0.625233   111A      0.628357   112A      0.635789  
     113A      0.646535   114A      0.650615   115A      0.660279  
     116A      0.668766   117A      0.672010   118A      0.676057  
     119A      0.690923   120A      0.699407   121A      0.702858  
     122A      0.718798   123A      0.730648   124A      0.744396  
     125A      0.753177   126A      0.770749   127A      0.778621  
     128A      0.793992   129A      0.804936   130A      0.820156  
     131A      0.832431   132A      0.835653   133A      0.849670  
     134A      0.851586   135A      0.863135   136A      0.872728  
     137A      0.880828   138A      0.894421   139A      0.898897  
     140A      0.910258   141A      0.916257   142A      0.926601  
     143A      0.933028   144A      0.943595   145A      0.945685  
     146A      0.955792   147A      0.972211   148A      0.979586  
     149A      0.985851   150A      0.989171   151A      0.999158  
     152A      1.002920   153A      1.003653   154A      1.019182  
     155A      1.021900   156A      1.027638   157A      1.028832  
     158A      1.033119   159A      1.045543   160A      1.056890  
     161A      1.061222   162A      1.072004   163A      1.075075  
     164A      1.086865   165A      1.089599   166A      1.095835  
     167A      1.100545   168A      1.109049   169A      1.113121  
     170A      1.118171   171A      1.124631   172A      1.129909  
     173A      1.137683   174A      1.141586   175A      1.148495  
     176A      1.159770   177A      1.164390   178A      1.173455  
     179A      1.187483   180A      1.188559   181A      1.194750  
     182A      1.200733   183A      1.211120   184A      1.213861  
     185A      1.219444   186A      1.223413   187A      1.236817  
     188A      1.240708   189A      1.253696   190A      1.258513  
     191A      1.264409   192A      1.275455   193A      1.284234  
     194A      1.298787   195A      1.306608   196A      1.311729  
     197A      1.322123   198A      1.330655   199A      1.337166  
     200A      1.344931   201A      1.356777   202A      1.361818  
     203A      1.380823   204A      1.386695   205A      1.395898  
     206A      1.403664   207A      1.408356   208A      1.417838  
     209A      1.427703   210A      1.436844   211A      1.446627  
     212A      1.464726   213A      1.478832   214A      1.481497  
     215A      1.488506   216A      1.492748   217A      1.504769  
     218A      1.519317   219A      1.525435   220A      1.540041  
     221A      1.552030   222A      1.554401   223A      1.565981  
     224A      1.576519   225A      1.586654   226A      1.593492  
     227A      1.609969   228A      1.622916   229A      1.626643  
     230A      1.636843   231A      1.639547   232A      1.660032  
     233A      1.668899   234A      1.681879   235A      1.683436  
     236A      1.691107   237A      1.700238   238A      1.713220  
     239A      1.721544   240A      1.727053   241A      1.746542  
     242A      1.751840   243A      1.767259   244A      1.778789  
     245A      1.784111   246A      1.799030   247A      1.813087  
     248A      1.828991   249A      1.837996   250A      1.843382  
     251A      1.852418   252A      1.856300   253A      1.868965  
     254A      1.876959   255A      1.908842   256A      1.916929  
     257A      1.935600   258A      1.936614   259A      1.961346  
     260A      1.972677   261A      1.981216   262A      1.984279  
     263A      2.000261   264A      2.019772   265A      2.025625  
     266A      2.029704   267A      2.046797   268A      2.053309  
     269A      2.063579   270A      2.071148   271A      2.087971  
     272A      2.099562   273A      2.109750   274A      2.121815  
     275A      2.124740   276A      2.133829   277A      2.149649  
     278A      2.158714   279A      2.165365   280A      2.181206  
     281A      2.191153   282A      2.216206   283A      2.233698  
     284A      2.254140   285A      2.266542   286A      2.275878  
     287A      2.293851   288A      2.303916   289A      2.313480  
     290A      2.330038   291A      2.335342   292A      2.363735  
     293A      2.389944   294A      2.403054   295A      2.424697  
     296A      2.436840   297A      2.453483   298A      2.460191  
     299A      2.482176   300A      2.493705   301A      2.516167  
     302A      2.533090   303A      2.549880   304A      2.574772  
     305A      2.593531   306A      2.633915   307A      2.644200  
     308A      2.659795   309A      2.684233   310A      2.697436  
     311A      2.714482   312A      2.720067   313A      2.758718  
     314A      2.761357   315A      2.779014   316A      2.801014  
     317A      2.828374   318A      2.836699   319A      2.848733  
     320A      2.873651   321A      2.881457   322A      2.890005  
     323A      2.916467   324A      2.937654   325A      2.966147  
     326A      2.973920   327A      2.990637   328A      3.021813  
     329A      3.045885   330A      3.075136   331A      3.123379  
     332A      3.157095   333A      3.165202   334A      3.183140  
     335A      3.221873   336A      3.260287   337A      3.306084  
     338A      3.323946   339A      3.348215   340A      3.372475  
     341A      3.403849   342A      3.469320   343A      3.504527  
     344A      3.512251   345A      3.529932   346A      3.546620  
     347A      3.564995   348A      3.630232   349A      3.654719  
     350A      3.665706   351A      3.675509   352A      3.721077  
     353A      3.742771   354A      3.750073   355A      3.774865  
     356A      3.788536   357A      3.817461   358A      3.843665  
     359A      3.849737   360A      3.879445   361A      3.900837  
     362A      3.936140   363A      3.939900   364A      3.977597  
     365A      4.006072   366A      4.006606   367A      4.019473  
     368A      4.041439   369A      4.054735   370A      4.087634  
     371A      4.093484   372A      4.120810   373A      4.130520  
     374A      4.152925   375A      4.166668   376A      4.174363  
     377A      4.193763   378A      4.213585   379A      4.216189  
     380A      4.234342   381A      4.243259   382A      4.266271  
     383A      4.278798   384A      4.295686   385A      4.312860  
     386A      4.341345   387A      4.356537   388A      4.372152  
     389A      4.380797   390A      4.386884   391A      4.400276  
     392A      4.419210   393A      4.437140   394A      4.476027  
     395A      4.503812   396A      4.513232   397A      4.524948  
     398A      4.541247   399A      4.560130   400A      4.567151  
     401A      4.575251   402A      4.584266   403A      4.614163  
     404A      4.621337   405A      4.634443   406A      4.648688  
     407A      4.653947   408A      4.687797   409A      4.704007  
     410A      4.716402   411A      4.731971   412A      4.743158  
     413A      4.759402   414A      4.782678   415A      4.809248  
     416A      4.820069   417A      4.846621   418A      4.863076  
     419A      4.876265   420A      4.881047   421A      4.903806  
     422A      4.911990   423A      4.927810   424A      4.952547  
     425A      4.972983   426A      4.976554   427A      4.998303  
     428A      5.020630   429A      5.037810   430A      5.044734  
     431A      5.071521   432A      5.079974   433A      5.082780  
     434A      5.107217   435A      5.119818   436A      5.124198  
     437A      5.149281   438A      5.170871   439A      5.197616  
     440A      5.212224   441A      5.222560   442A      5.255343  
     443A      5.277098   444A      5.281073   445A      5.312269  
     446A      5.326383   447A      5.351914   448A      5.354949  
     449A      5.371459   450A      5.392037   451A      5.404788  
     452A      5.425714   453A      5.450628   454A      5.463762  
     455A      5.502661   456A      5.509260   457A      5.542348  
     458A      5.546308   459A      5.558727   460A      5.578251  
     461A      5.584609   462A      5.593220   463A      5.613047  
     464A      5.640586   465A      5.671094   466A      5.698986  
     467A      5.717429   468A      5.741517   469A      5.758446  
     470A      5.762477   471A      5.779100   472A      5.815297  
     473A      5.825775   474A      5.836978   475A      5.848042  
     476A      5.906301   477A      5.912896   478A      5.988005  
     479A      6.008474   480A      6.057737   481A      6.074862  
     482A      6.096552   483A      6.113994   484A      6.160021  
     485A      6.170628   486A      6.183250   487A      6.231107  
     488A      6.285860   489A      6.293151   490A      6.297384  
     491A      6.313335   492A      6.411232   493A      6.439056  
     494A      6.457725   495A      6.503188   496A      6.721774  
     497A      6.770904   498A      6.807356   499A      6.820205  
     500A      6.868985   501A      6.910593   502A      6.984848  
     503A      6.997228   504A      7.034501   505A      7.039746  
     506A      7.117492   507A      7.151273   508A      7.184112  
     509A      7.249299   510A      7.343217   511A      7.369473  
     512A      7.399255   513A      7.545219   514A      7.560821  
     515A      7.635018   516A      7.789330   517A      7.831352  
     518A      7.844306   519A      7.866543   520A      7.887228  
     521A      7.903202   522A      7.923843   523A      7.995480  
     524A      8.051046   525A      8.116177   526A      8.190060  
     527A      8.284528   528A      8.302426   529A      8.311698  
     530A      8.388516   531A      8.399001   532A      8.589292  
     533A      8.640315   534A      8.917110   535A      9.005095  
     536A      9.984355   537A     10.045884   538A     10.267416  
     539A     10.393704   540A     10.721751   541A     10.769859  
     542A     11.098665   543A     12.031363   544A     12.387119  
     545A     13.322007   546A     14.104631   547A     16.280940  
     548A     18.131853   549A     18.746278   550A     53.306290  
     551A     55.043469   552A     66.718740  

    Final Occupation by Irrep:
              A 
    DOCC [    13 ]
    NA   [    13 ]
    NB   [    13 ]

  @DF-RHF Final Energy:  -154.14563714325197

   => Energetics <=

    Nuclear Repulsion Energy =             82.2753186728213848
    One-Electron Energy =                -372.5236289550406923
    Two-Electron Energy =                 136.1026731389673614
    Total Energy =                       -154.1456371432519745

Computation Completed


Properties will be evaluated at   0.000000,   0.000000,   0.000000 [a0]

Properties computed using the SCF density matrix


 Multipole Moments:

 ------------------------------------------------------------------------------------
     Multipole            Electronic (a.u.)      Nuclear  (a.u.)        Total (a.u.)
 ------------------------------------------------------------------------------------

 L = 1.  Multiply by 2.5417464519 to convert [e a0] to [Debye]
 Dipole X            :        -99.8683118           99.8918697            0.0235579
 Dipole Y            :          7.1909644           -7.1862505            0.0047139
 Dipole Z            :         -1.2008905            1.8566332            0.6557428
 Magnitude           :                                                    0.6561827

 ------------------------------------------------------------------------------------

*** tstop() called on Moses-MBP.lan at Thu Feb 27 17:52:57 2025
Module time:
	user time   =      72.21 seconds =       1.20 minutes
	system time =       7.69 seconds =       0.13 minutes
	total time  =         10 seconds =       0.17 minutes
Total time:
	user time   =      72.21 seconds =       1.20 minutes
	system time =       7.69 seconds =       0.13 minutes
	total time  =         10 seconds =       0.17 minutes

*** tstart() called on Moses-MBP.lan
*** at Thu Feb 27 17:52:57 2025


  //>>>>>>>>>>>>>>>>>>>>>>>>>>>>>>>>>>>//
  //               DFMP2               //
  //<<<<<<<<<<<<<<<<<<<<<<<<<<<<<<<<<<<//

   => Loading Basis Set <=

    Name: (AUG-CC-PVTZ AUX)
    Role: RIFIT
    Keyword: DF_BASIS_MP2
    atoms 1-2, 10-11 entry C          line   148 file /Users/moseschung/miniconda3/envs/psi4/share/psi4/basis/aug-cc-pvtz-ri.gbs 
    atoms 3, 12      entry O          line   264 file /Users/moseschung/miniconda3/envs/psi4/share/psi4/basis/aug-cc-pvtz-ri.gbs 
    atoms 4-9, 13-18 entry H          line    30 file /Users/moseschung/miniconda3/envs/psi4/share/psi4/basis/aug-cc-pvtz-ri.gbs 

	 --------------------------------------------------------
	                          DF-MP2                         
	      2nd-Order Density-Fitted Moller-Plesset Theory     
	              RMP2 Wavefunction,  10 Threads             
	                                                         
	        Rob Parrish, Justin Turney, Andy Simmonett,      
	           Ed Hohenstein, and C. David Sherrill          
	 --------------------------------------------------------

   => Auxiliary Basis Set <=

  Basis Set: (AUG-CC-PVTZ AUX)
    Blend: AUG-CC-PVTZ-RI
    Number of shells: 336
    Number of basis functions: 1188
    Number of Cartesian functions: 1476
    Spherical Harmonics?: true
    Max angular momentum: 4

	 --------------------------------------------------------
	                 NBF =   552, NAUX =  1188
	 --------------------------------------------------------
	   CLASS    FOCC     OCC    AOCC    AVIR     VIR    FVIR
	   PAIRS       0      13      13     539     539       0
	 --------------------------------------------------------

	-----------------------------------------------------------
	 ==================> DF-MP2 Energies <==================== 
	-----------------------------------------------------------
	 Reference Energy          =    -154.1456371432519745 [Eh]
	 Singles Energy            =      -0.0000000000000000 [Eh]
	 Same-Spin Energy          =      -0.1481538808615331 [Eh]
	 Opposite-Spin Energy      =      -0.5184494837060811 [Eh]
	 Correlation Energy        =      -0.6666033645676142 [Eh]
	 Total Energy              =    -154.8122405078195811 [Eh]
	-----------------------------------------------------------
	 ================> DF-SCS-MP2 Energies <================== 
	-----------------------------------------------------------
	 SCS Same-Spin Scale       =       0.3333333333333333 [-]
	 SCS Opposite-Spin Scale   =       1.2000000000000000 [-]
	 SCS Same-Spin Energy      =      -0.0493846269538444 [Eh]
	 SCS Opposite-Spin Energy  =      -0.6221393804472973 [Eh]
	 SCS Correlation Energy    =      -0.6715240074011417 [Eh]
	 SCS Total Energy          =    -154.8171611506531065 [Eh]
	-----------------------------------------------------------


*** tstop() called on Moses-MBP.lan at Thu Feb 27 17:53:00 2025
Module time:
	user time   =      19.42 seconds =       0.32 minutes
	system time =       2.19 seconds =       0.04 minutes
	total time  =          3 seconds =       0.05 minutes
Total time:
	user time   =      91.63 seconds =       1.53 minutes
	system time =       9.88 seconds =       0.16 minutes
	total time  =         13 seconds =       0.22 minutes

    Psi4 stopped on: Thursday, 27 February 2025 05:53PM
    Psi4 wall time for execution: 0:00:13.64


    -----------------------------------------------------------------------
          Psi4: An Open-Source Ab Initio Electronic Structure Package
                               Psi4 1.9.1 release

                         Git: Rev {} zzzzzzz 


    D. G. A. Smith, L. A. Burns, A. C. Simmonett, R. M. Parrish,
    M. C. Schieber, R. Galvelis, P. Kraus, H. Kruse, R. Di Remigio,
    A. Alenaizan, A. M. James, S. Lehtola, J. P. Misiewicz, M. Scheurer,
    R. A. Shaw, J. B. Schriber, Y. Xie, Z. L. Glick, D. A. Sirianni,
    J. S. O'Brien, J. M. Waldrop, A. Kumar, E. G. Hohenstein,
    B. P. Pritchard, B. R. Brooks, H. F. Schaefer III, A. Yu. Sokolov,
    K. Patkowski, A. E. DePrince III, U. Bozkaya, R. A. King,
    F. A. Evangelista, J. M. Turney, T. D. Crawford, C. D. Sherrill,
    J. Chem. Phys. 152(18) 184108 (2020). https://doi.org/10.1063/5.0006002

                            Additional Code Authors
    E. T. Seidl, C. L. Janssen, E. F. Valeev, M. L. Leininger,
    J. F. Gonthier, R. M. Richard, H. R. McAlexander, M. Saitow, X. Wang,
    P. Verma, M. H. Lechner, A. Jiang, S. Behnle, A. G. Heide,
    M. F. Herbst, and D. L. Poole

             Previous Authors, Complete List of Code Contributors,
                       and Citations for Specific Modules
    https://github.com/psi4/psi4/blob/master/codemeta.json
    https://github.com/psi4/psi4/graphs/contributors
    http://psicode.org/psi4manual/master/introduction.html#citing-psifour

    -----------------------------------------------------------------------


    Psi4 started on: Thursday, 27 February 2025 05:52PM

    Process ID: 32346
    Host:       Moses-MBP.lan
    PSIDATADIR: /Users/moseschung/miniconda3/envs/psi4/share/psi4
    Memory:     9.3 GiB
    Threads:    10
    
  ==> Input QCSchema <==

--------------------------------------------------------------------------
{'driver': 'energy',
 'extras': {'psiapi': True, 'wfn_qcvars_only': True},
 'id': None,
 'keywords': {'SCF_TYPE': 'DF', 'function_kwargs': {}},
 'model': {'basis': 'aug-cc-pvtz', 'method': 'mp2'},
 'molecule': {'atom_labels': ['', '', '', '', '', '', '', '', '', '', '', '', '', '', '', '', '', ''],
              'atomic_numbers': [6, 6, 8, 1, 1, 1, 1, 1, 1, 6, 6, 8, 1, 1, 1, 1, 1, 1],
              'extras': {},
              'fix_com': True,
              'fix_orientation': True,
              'fix_symmetry': 'c1',
              'fragment_charges': [0.0, 0.0],
              'fragment_multiplicities': [1, 1],
              'fragments': [[0, 1, 2, 3, 4, 5, 6, 7, 8], [9, 10, 11, 12, 13, 14, 15, 16, 17]],
              'geometry': [-2.4333493091466583, 2.092584445573475, -0.30575012819457476, -3.3470148832703885,
                           -0.60495991426894, -0.39187250663618983, -5.894371369565918, -0.8557095635820646,
                           0.3393343408962113, -6.0895498427077035, -0.10750273982504494, 1.981385401447035,
                           -0.47875077552798806, 2.248141031042787, -0.9599222902226875, -2.5096035377611323,
                           2.8266976918868303, 1.628416686555645, -3.62249537838738, 3.2959960573352785,
                           -1.4866758887895555, -2.1168901029991134, -1.8165502607017248, 0.7713314023542471,
                           -3.2374221063505875, -1.340603838743916, -2.320113140256974, 3.4558990128931435,
                           -2.489927709342865, -0.5193156365370657, 3.8449331508888958, -0.19629341155580643,
                           1.1077234396731206, 4.2259321733992, 1.8935093571609949, -0.5039408247803409,
                           4.556949829617272, 3.367270857609171, 0.49808456351754704, 3.1060407872042575,
                           -4.16197061323083, 0.6359230768345665, 5.11653741961397, -2.835534051249471,
                           -1.6921023467096992, 1.8384351789606517, -2.216312373911701, -1.7725536570488156,
                           5.476809925980254, -0.47386961294593044, 2.3620556116115106, 2.184646233227404,
                           0.10341715194180508, 2.3263057727700986],
              'mass_numbers': [12, 12, 16, 1, 1, 1, 1, 1, 1, 12, 12, 16, 1, 1, 1, 1, 1, 1],
              'masses': [12.0, 12.0, 15.99491461957, 1.00782503223, 1.00782503223, 1.00782503223, 1.00782503223,
                         1.00782503223, 1.00782503223, 12.0, 12.0, 15.99491461957, 1.00782503223, 1.00782503223,
                         1.00782503223, 1.00782503223, 1.00782503223, 1.00782503223],
              'molecular_charge': 0.0,
              'molecular_multiplicity': 1,
              'name': 'dimer',
              'provenance': {'creator': 'QCElemental',
                             'routine': 'qcelemental.molparse.from_string',
                             'version': '0.29.0'},
              'real': [True, True, True, True, True, True, True, True, True, False, False, False, False, False, False,
                       False, False, False],
              'schema_name': 'qcschema_molecule',
              'schema_version': 2,
              'symbols': ['C', 'C', 'O', 'H', 'H', 'H', 'H', 'H', 'H', 'C', 'C', 'O', 'H', 'H', 'H', 'H', 'H', 'H'],
              'validated': True},
 'protocols': {'stdout': True},
 'provenance': {'creator': 'QCElemental', 'routine': 'qcelemental.models.results', 'version': '0.29.0'},
 'schema_name': 'qcschema_input',
 'schema_version': 1}
--------------------------------------------------------------------------

Scratch directory: /tmp/
   => Libint2 <=

    Primary   basis highest AM E, G, H:  6, 6, 3
    Auxiliary basis highest AM E, G, H:  7, 7, 4
    Onebody   basis highest AM E, G, H:  -, -, -
    Solid Harmonics ordering:            Gaussian

*** tstart() called on Moses-MBP.lan
*** at Thu Feb 27 17:53:00 2025

   => Loading Basis Set <=

    Name: AUG-CC-PVTZ
    Role: ORBITAL
    Keyword: BASIS
    atoms 1-2, 10-11 entry C          line   239 file /Users/moseschung/miniconda3/envs/psi4/share/psi4/basis/aug-cc-pvtz.gbs 
    atoms 3, 12      entry O          line   331 file /Users/moseschung/miniconda3/envs/psi4/share/psi4/basis/aug-cc-pvtz.gbs 
    atoms 4-9, 13-18 entry H          line    40 file /Users/moseschung/miniconda3/envs/psi4/share/psi4/basis/aug-cc-pvtz.gbs 


         ---------------------------------------------------------
                                   SCF
               by Justin Turney, Rob Parrish, Andy Simmonett
                          and Daniel G. A. Smith
                              RHF Reference
                       10 Threads,   9536 MiB Core
         ---------------------------------------------------------

  ==> Geometry <==

    Molecular point group: c1
    Full point group: C1

    Geometry (in Bohr), charge = 0, multiplicity = 1:

       Center              X                  Y                   Z               Mass       
    ------------   -----------------  -----------------  -----------------  -----------------
         C           -2.433349309147     2.092584445573    -0.305750128195    12.000000000000
         C           -3.347014883270    -0.604959914269    -0.391872506636    12.000000000000
         O           -5.894371369566    -0.855709563582     0.339334340896    15.994914619570
         H           -6.089549842708    -0.107502739825     1.981385401447     1.007825032230
         H           -0.478750775528     2.248141031043    -0.959922290223     1.007825032230
         H           -2.509603537761     2.826697691887     1.628416686556     1.007825032230
         H           -3.622495378387     3.295996057335    -1.486675888790     1.007825032230
         H           -2.116890102999    -1.816550260702     0.771331402354     1.007825032230
         H           -3.237422106351    -1.340603838744    -2.320113140257     1.007825032230
      Gh(C)           3.455899012893    -2.489927709343    -0.519315636537    12.000000000000
      Gh(C)           3.844933150889    -0.196293411556     1.107723439673    12.000000000000
      Gh(O)           4.225932173399     1.893509357161    -0.503940824780    15.994914619570
      Gh(H)           4.556949829617     3.367270857609     0.498084563518     1.007825032230
      Gh(H)           3.106040787204    -4.161970613231     0.635923076835     1.007825032230
      Gh(H)           5.116537419614    -2.835534051249    -1.692102346710     1.007825032230
      Gh(H)           1.838435178961    -2.216312373912    -1.772553657049     1.007825032230
      Gh(H)           5.476809925980    -0.473869612946     2.362055611612     1.007825032230
      Gh(H)           2.184646233227     0.103417151942     2.326305772770     1.007825032230

  Running in c1 symmetry.

  Rotational constants: A =      0.18133  B =      0.03771  C =      0.03330 [cm^-1]
  Rotational constants: A =   5436.13642  B =   1130.60016  C =    998.32715 [MHz]
  Nuclear repulsion =   82.150749614175382

  Charge       = 0
  Multiplicity = 1
  Electrons    = 26
  Nalpha       = 13
  Nbeta        = 13

  ==> Algorithm <==

  SCF Algorithm Type is DF.
  DIIS enabled.
  MOM disabled.
  Fractional occupation disabled.
  Guess Type is SAD.
  Energy threshold   = 1.00e-08
  Density threshold  = 1.00e-08
  Integral threshold = 1.00e-12

  ==> Primary Basis <==

  Basis Set: AUG-CC-PVTZ
    Blend: AUG-CC-PVTZ
    Number of shells: 192
    Number of basis functions: 552
    Number of Cartesian functions: 630
    Spherical Harmonics?: true
    Max angular momentum: 3

   => Loading Basis Set <=

    Name: (AUG-CC-PVTZ AUX)
    Role: JKFIT
    Keyword: DF_BASIS_SCF
    atoms 1-2, 10-11 entry C          line   162 file /Users/moseschung/miniconda3/envs/psi4/share/psi4/basis/aug-cc-pvtz-jkfit.gbs 
    atoms 3, 12      entry O          line   286 file /Users/moseschung/miniconda3/envs/psi4/share/psi4/basis/aug-cc-pvtz-jkfit.gbs 
    atoms 4-9, 13-18 entry H          line    70 file /Users/moseschung/miniconda3/envs/psi4/share/psi4/basis/aug-cc-pvtz-jkfit.gbs 

  ==> Integral Setup <==

  DFHelper Memory: AOs need 2.606 GiB; user supplied 6.985 GiB. 
  Using in-core AOs.

  ==> MemDFJK: Density-Fitted J/K Matrices <==

    J tasked:                   Yes
    K tasked:                   Yes
    wK tasked:                   No
    OpenMP threads:              10
    Memory [MiB]:              7152
    Algorithm:                 Core
    Schwarz Cutoff:           1E-12
    Mask sparsity (%):       5.9166
    Fitting Condition:        1E-10

   => Auxiliary Basis Set <=

  Basis Set: (AUG-CC-PVTZ AUX)
    Blend: AUG-CC-PVTZ-JKFIT
    Number of shells: 348
    Number of basis functions: 1176
    Number of Cartesian functions: 1446
    Spherical Harmonics?: true
    Max angular momentum: 4

  Minimum eigenvalue in the overlap matrix is 5.9966581912E-06.
  Reciprocal condition number of the overlap matrix is 3.1260896355E-07.
    Using symmetric orthogonalization.

  ==> Pre-Iterations <==

  SCF Guess: Superposition of Atomic Densities via on-the-fly atomic UHF (no occupation information).

   -------------------------
    Irrep   Nso     Nmo    
   -------------------------
     A        552     552 
   -------------------------
    Total     552     552
   -------------------------

  ==> Iterations <==

                           Total Energy        Delta E     RMS |[F,P]|

   @DF-RHF iter SAD:  -153.45774483453775   -1.53458e+02   0.00000e+00 
   @DF-RHF iter   1:  -154.00371302729388   -5.45968e-01   9.36215e-04 ADIIS/DIIS
   @DF-RHF iter   2:  -154.11542834210496   -1.11715e-01   4.94114e-04 ADIIS/DIIS
   @DF-RHF iter   3:  -154.14323857788457   -2.78102e-02   8.36605e-05 DIIS
   @DF-RHF iter   4:  -154.14481346960693   -1.57489e-03   3.19773e-05 DIIS
   @DF-RHF iter   5:  -154.14499834945656   -1.84880e-04   6.21969e-06 DIIS
   @DF-RHF iter   6:  -154.14500862307710   -1.02736e-05   1.42589e-06 DIIS
   @DF-RHF iter   7:  -154.14500935864677   -7.35570e-07   4.05662e-07 DIIS
   @DF-RHF iter   8:  -154.14500941364537   -5.49986e-08   1.28309e-07 DIIS
   @DF-RHF iter   9:  -154.14500941979057   -6.14520e-09   3.29057e-08 DIIS
   @DF-RHF iter  10:  -154.14500942021886   -4.28287e-10   6.27341e-09 DIIS
  Energy and wave function converged.


  ==> Post-Iterations <==

    Orbital Energies [Eh]
    ---------------------

    Doubly Occupied:                                                      

       1A    -20.555891     2A    -11.273537     3A    -11.219207  
       4A     -1.362929     5A     -1.014488     6A     -0.848639  
       7A     -0.686328     8A     -0.626032     9A     -0.613812  
      10A     -0.543591    11A     -0.526736    12A     -0.481352  
      13A     -0.442517  

    Virtual:                                                              

      14A      0.020040    15A      0.032229    16A      0.035226  
      17A      0.037088    18A      0.051535    19A      0.053975  
      20A      0.056011    21A      0.058586    22A      0.065029  
      23A      0.080589    24A      0.081876    25A      0.085117  
      26A      0.091359    27A      0.107616    28A      0.109189  
      29A      0.116439    30A      0.122296    31A      0.126351  
      32A      0.128228    33A      0.138036    34A      0.143187  
      35A      0.148463    36A      0.155842    37A      0.160470  
      38A      0.163528    39A      0.166344    40A      0.171066  
      41A      0.183619    42A      0.192952    43A      0.196966  
      44A      0.207314    45A      0.217911    46A      0.220781  
      47A      0.229402    48A      0.246586    49A      0.248122  
      50A      0.253404    51A      0.264389    52A      0.273533  
      53A      0.274505    54A      0.289120    55A      0.297199  
      56A      0.301261    57A      0.305030    58A      0.312105  
      59A      0.315757    60A      0.324719    61A      0.332871  
      62A      0.334894    63A      0.336633    64A      0.338526  
      65A      0.344504    66A      0.350537    67A      0.355266  
      68A      0.361754    69A      0.367346    70A      0.371695  
      71A      0.373743    72A      0.384945    73A      0.387827  
      74A      0.390763    75A      0.400224    76A      0.404987  
      77A      0.409169    78A      0.419013    79A      0.426764  
      80A      0.434788    81A      0.436433    82A      0.439377  
      83A      0.442398    84A      0.455058    85A      0.459911  
      86A      0.465668    87A      0.468603    88A      0.476580  
      89A      0.478252    90A      0.492725    91A      0.494676  
      92A      0.505517    93A      0.507837    94A      0.515718  
      95A      0.521844    96A      0.524278    97A      0.528309  
      98A      0.541283    99A      0.545050   100A      0.550177  
     101A      0.557307   102A      0.564423   103A      0.573555  
     104A      0.580970   105A      0.589861   106A      0.592193  
     107A      0.600782   108A      0.612383   109A      0.617839  
     110A      0.633156   111A      0.636035   112A      0.644979  
     113A      0.648080   114A      0.656299   115A      0.660184  
     116A      0.669981   117A      0.675268   118A      0.678737  
     119A      0.684354   120A      0.698975   121A      0.707180  
     122A      0.725678   123A      0.728555   124A      0.740658  
     125A      0.755019   126A      0.762213   127A      0.768222  
     128A      0.782874   129A      0.789712   130A      0.802437  
     131A      0.817293   132A      0.822751   133A      0.836737  
     134A      0.845230   135A      0.856442   136A      0.873374  
     137A      0.882161   138A      0.885673   139A      0.887214  
     140A      0.900938   141A      0.908648   142A      0.911221  
     143A      0.924089   144A      0.929537   145A      0.944820  
     146A      0.953993   147A      0.956982   148A      0.962005  
     149A      0.974250   150A      0.978800   151A      0.983878  
     152A      0.987170   153A      1.000299   154A      1.010513  
     155A      1.015375   156A      1.020177   157A      1.022698  
     158A      1.034896   159A      1.040778   160A      1.052316  
     161A      1.059048   162A      1.063424   163A      1.069068  
     164A      1.078048   165A      1.083354   166A      1.086357  
     167A      1.094331   168A      1.107542   169A      1.114365  
     170A      1.121206   171A      1.129634   172A      1.134977  
     173A      1.138435   174A      1.144892   175A      1.148829  
     176A      1.154829   177A      1.165976   178A      1.178342  
     179A      1.179266   180A      1.194795   181A      1.201139  
     182A      1.207175   183A      1.214475   184A      1.216757  
     185A      1.224928   186A      1.231086   187A      1.236198  
     188A      1.244535   189A      1.249808   190A      1.263976  
     191A      1.268383   192A      1.275662   193A      1.282136  
     194A      1.290127   195A      1.297736   196A      1.308518  
     197A      1.321224   198A      1.328875   199A      1.330253  
     200A      1.352773   201A      1.361071   202A      1.365578  
     203A      1.366447   204A      1.377677   205A      1.383199  
     206A      1.403711   207A      1.409125   208A      1.410629  
     209A      1.419852   210A      1.434859   211A      1.446900  
     212A      1.454659   213A      1.464058   214A      1.469747  
     215A      1.488860   216A      1.493554   217A      1.495150  
     218A      1.516401   219A      1.519165   220A      1.532345  
     221A      1.540270   222A      1.553960   223A      1.559898  
     224A      1.577449   225A      1.585285   226A      1.587620  
     227A      1.596217   228A      1.609462   229A      1.616053  
     230A      1.630857   231A      1.633581   232A      1.653645  
     233A      1.661362   234A      1.677529   235A      1.682549  
     236A      1.700496   237A      1.704508   238A      1.708076  
     239A      1.719882   240A      1.727675   241A      1.736977  
     242A      1.745267   243A      1.751533   244A      1.760039  
     245A      1.772670   246A      1.797692   247A      1.803792  
     248A      1.814701   249A      1.827693   250A      1.836338  
     251A      1.841396   252A      1.846562   253A      1.864823  
     254A      1.869472   255A      1.881799   256A      1.907918  
     257A      1.914930   258A      1.932878   259A      1.943508  
     260A      1.952067   261A      1.969951   262A      1.974417  
     263A      1.995933   264A      2.006740   265A      2.008372  
     266A      2.026100   267A      2.037585   268A      2.047231  
     269A      2.057042   270A      2.061068   271A      2.077956  
     272A      2.087493   273A      2.092187   274A      2.104380  
     275A      2.122088   276A      2.135446   277A      2.161482  
     278A      2.165578   279A      2.176687   280A      2.186793  
     281A      2.208250   282A      2.216935   283A      2.227958  
     284A      2.247022   285A      2.251763   286A      2.263553  
     287A      2.281893   288A      2.286964   289A      2.304670  
     290A      2.309836   291A      2.322318   292A      2.343232  
     293A      2.382063   294A      2.397655   295A      2.406057  
     296A      2.421511   297A      2.426791   298A      2.451184  
     299A      2.461806   300A      2.476397   301A      2.483267  
     302A      2.502024   303A      2.535847   304A      2.568920  
     305A      2.600487   306A      2.608260   307A      2.627006  
     308A      2.646407   309A      2.668671   310A      2.688339  
     311A      2.713116   312A      2.728703   313A      2.736732  
     314A      2.764824   315A      2.765932   316A      2.794749  
     317A      2.809053   318A      2.835465   319A      2.841246  
     320A      2.865563   321A      2.893315   322A      2.905776  
     323A      2.945385   324A      2.950290   325A      2.976057  
     326A      3.015001   327A      3.026089   328A      3.050973  
     329A      3.057798   330A      3.106465   331A      3.125889  
     332A      3.169227   333A      3.190884   334A      3.216657  
     335A      3.251622   336A      3.269860   337A      3.309979  
     338A      3.333911   339A      3.344314   340A      3.402541  
     341A      3.471343   342A      3.474016   343A      3.497433  
     344A      3.511364   345A      3.530668   346A      3.555948  
     347A      3.579487   348A      3.587509   349A      3.619727  
     350A      3.637977   351A      3.663304   352A      3.695489  
     353A      3.705492   354A      3.721766   355A      3.746901  
     356A      3.784864   357A      3.810493   358A      3.828811  
     359A      3.848997   360A      3.863340   361A      3.893309  
     362A      3.900941   363A      3.930131   364A      3.950390  
     365A      3.966440   366A      3.991378   367A      4.008566  
     368A      4.014566   369A      4.050765   370A      4.062213  
     371A      4.098610   372A      4.108133   373A      4.137099  
     374A      4.140423   375A      4.150183   376A      4.171532  
     377A      4.182653   378A      4.193960   379A      4.204229  
     380A      4.213594   381A      4.248785   382A      4.249925  
     383A      4.265717   384A      4.294449   385A      4.310425  
     386A      4.314985   387A      4.316299   388A      4.343015  
     389A      4.356778   390A      4.399311   391A      4.413077  
     392A      4.437598   393A      4.448135   394A      4.460506  
     395A      4.495624   396A      4.516121   397A      4.529975  
     398A      4.546455   399A      4.557142   400A      4.566294  
     401A      4.578726   402A      4.596460   403A      4.605714  
     404A      4.627254   405A      4.652910   406A      4.667386  
     407A      4.691528   408A      4.702063   409A      4.713858  
     410A      4.718840   411A      4.731881   412A      4.744253  
     413A      4.770909   414A      4.784628   415A      4.791569  
     416A      4.815507   417A      4.837993   418A      4.860435  
     419A      4.884749   420A      4.890152   421A      4.903194  
     422A      4.917454   423A      4.926687   424A      4.937743  
     425A      4.946148   426A      4.966746   427A      4.977190  
     428A      4.985066   429A      5.008507   430A      5.015446  
     431A      5.025215   432A      5.055802   433A      5.063785  
     434A      5.077011   435A      5.099500   436A      5.114177  
     437A      5.146451   438A      5.164500   439A      5.182823  
     440A      5.210805   441A      5.229192   442A      5.255837  
     443A      5.264031   444A      5.272226   445A      5.283229  
     446A      5.332475   447A      5.358574   448A      5.365717  
     449A      5.376779   450A      5.398625   451A      5.415014  
     452A      5.438647   453A      5.447974   454A      5.473330  
     455A      5.481760   456A      5.493768   457A      5.517665  
     458A      5.529478   459A      5.542017   460A      5.571209  
     461A      5.587005   462A      5.596988   463A      5.615778  
     464A      5.637531   465A      5.664499   466A      5.680119  
     467A      5.699253   468A      5.706426   469A      5.722651  
     470A      5.733300   471A      5.755099   472A      5.781736  
     473A      5.815382   474A      5.845002   475A      5.875322  
     476A      5.910103   477A      5.949212   478A      5.998251  
     479A      6.014489   480A      6.043003   481A      6.058975  
     482A      6.095301   483A      6.132688   484A      6.162545  
     485A      6.184475   486A      6.215374   487A      6.220836  
     488A      6.231113   489A      6.263477   490A      6.286977  
     491A      6.304978   492A      6.312462   493A      6.434347  
     494A      6.462678   495A      6.568842   496A      6.699625  
     497A      6.745201   498A      6.828420   499A      6.855203  
     500A      6.885808   501A      6.905309   502A      6.916438  
     503A      6.956732   504A      6.992370   505A      7.032518  
     506A      7.118132   507A      7.137204   508A      7.162530  
     509A      7.223082   510A      7.309776   511A      7.352980  
     512A      7.398160   513A      7.466494   514A      7.540996  
     515A      7.659196   516A      7.792423   517A      7.833739  
     518A      7.843322   519A      7.872831   520A      7.880062  
     521A      7.899135   522A      7.916642   523A      7.958782  
     524A      7.995724   525A      8.164714   526A      8.185120  
     527A      8.227081   528A      8.249317   529A      8.325664  
     530A      8.385729   531A      8.437353   532A      8.597303  
     533A      8.644213   534A      8.886691   535A      9.072931  
     536A     10.006295   537A     10.121009   538A     10.375139  
     539A     10.404797   540A     10.453003   541A     10.824910  
     542A     11.078755   543A     12.064306   544A     12.406381  
     545A     13.301113   546A     14.154207   547A     16.434351  
     548A     17.977628   549A     18.901135   550A     53.288354  
     551A     54.775339   552A     66.685861  

    Final Occupation by Irrep:
              A 
    DOCC [    13 ]
    NA   [    13 ]
    NB   [    13 ]

  @DF-RHF Final Energy:  -154.14500942021886

   => Energetics <=

    Nuclear Repulsion Energy =             82.1507496141753819
    One-Electron Energy =                -372.2013939316508981
    Two-Electron Energy =                 135.9056348972566752
    Total Energy =                       -154.1450094202188552

Computation Completed


Properties will be evaluated at   0.000000,   0.000000,   0.000000 [a0]

Properties computed using the SCF density matrix


 Multipole Moments:

 ------------------------------------------------------------------------------------
     Multipole            Electronic (a.u.)      Nuclear  (a.u.)        Total (a.u.)
 ------------------------------------------------------------------------------------

 L = 1.  Multiply by 2.5417464519 to convert [e a0] to [Debye]
 Dipole X            :        100.4209668          -99.8918679            0.5290989
 Dipole Y            :         -6.8489880            7.1862486            0.3372606
 Dipole Z            :          2.1945044           -1.8566389            0.3378655
 Magnitude           :                                                    0.7126314

 ------------------------------------------------------------------------------------

*** tstop() called on Moses-MBP.lan at Thu Feb 27 17:53:10 2025
Module time:
	user time   =      69.64 seconds =       1.16 minutes
	system time =       6.28 seconds =       0.10 minutes
	total time  =         10 seconds =       0.17 minutes
Total time:
	user time   =     161.53 seconds =       2.69 minutes
	system time =      16.25 seconds =       0.27 minutes
	total time  =         23 seconds =       0.38 minutes

*** tstart() called on Moses-MBP.lan
*** at Thu Feb 27 17:53:10 2025


  //>>>>>>>>>>>>>>>>>>>>>>>>>>>>>>>>>>>//
  //               DFMP2               //
  //<<<<<<<<<<<<<<<<<<<<<<<<<<<<<<<<<<<//

   => Loading Basis Set <=

    Name: (AUG-CC-PVTZ AUX)
    Role: RIFIT
    Keyword: DF_BASIS_MP2
    atoms 1-2, 10-11 entry C          line   148 file /Users/moseschung/miniconda3/envs/psi4/share/psi4/basis/aug-cc-pvtz-ri.gbs 
    atoms 3, 12      entry O          line   264 file /Users/moseschung/miniconda3/envs/psi4/share/psi4/basis/aug-cc-pvtz-ri.gbs 
    atoms 4-9, 13-18 entry H          line    30 file /Users/moseschung/miniconda3/envs/psi4/share/psi4/basis/aug-cc-pvtz-ri.gbs 

	 --------------------------------------------------------
	                          DF-MP2                         
	      2nd-Order Density-Fitted Moller-Plesset Theory     
	              RMP2 Wavefunction,  10 Threads             
	                                                         
	        Rob Parrish, Justin Turney, Andy Simmonett,      
	           Ed Hohenstein, and C. David Sherrill          
	 --------------------------------------------------------

   => Auxiliary Basis Set <=

  Basis Set: (AUG-CC-PVTZ AUX)
    Blend: AUG-CC-PVTZ-RI
    Number of shells: 336
    Number of basis functions: 1188
    Number of Cartesian functions: 1476
    Spherical Harmonics?: true
    Max angular momentum: 4

	 --------------------------------------------------------
	                 NBF =   552, NAUX =  1188
	 --------------------------------------------------------
	   CLASS    FOCC     OCC    AOCC    AVIR     VIR    FVIR
	   PAIRS       0      13      13     539     539       0
	 --------------------------------------------------------

	-----------------------------------------------------------
	 ==================> DF-MP2 Energies <==================== 
	-----------------------------------------------------------
	 Reference Energy          =    -154.1450094202188552 [Eh]
	 Singles Energy            =      -0.0000000000000000 [Eh]
	 Same-Spin Energy          =      -0.1482290658988635 [Eh]
	 Opposite-Spin Energy      =      -0.5185563470107291 [Eh]
	 Correlation Energy        =      -0.6667854129095925 [Eh]
	 Total Energy              =    -154.8117948331284595 [Eh]
	-----------------------------------------------------------
	 ================> DF-SCS-MP2 Energies <================== 
	-----------------------------------------------------------
	 SCS Same-Spin Scale       =       0.3333333333333333 [-]
	 SCS Opposite-Spin Scale   =       1.2000000000000000 [-]
	 SCS Same-Spin Energy      =      -0.0494096886329545 [Eh]
	 SCS Opposite-Spin Energy  =      -0.6222676164128749 [Eh]
	 SCS Correlation Energy    =      -0.6716773050458293 [Eh]
	 SCS Total Energy          =    -154.8166867252646739 [Eh]
	-----------------------------------------------------------


*** tstop() called on Moses-MBP.lan at Thu Feb 27 17:53:14 2025
Module time:
	user time   =      20.83 seconds =       0.35 minutes
	system time =       1.89 seconds =       0.03 minutes
	total time  =          4 seconds =       0.07 minutes
Total time:
	user time   =     182.36 seconds =       3.04 minutes
	system time =      18.14 seconds =       0.30 minutes
	total time  =         27 seconds =       0.45 minutes

    Psi4 stopped on: Thursday, 27 February 2025 05:53PM
    Psi4 wall time for execution: 0:00:13.61


    -----------------------------------------------------------------------
          Psi4: An Open-Source Ab Initio Electronic Structure Package
                               Psi4 1.9.1 release

                         Git: Rev {} zzzzzzz 


    D. G. A. Smith, L. A. Burns, A. C. Simmonett, R. M. Parrish,
    M. C. Schieber, R. Galvelis, P. Kraus, H. Kruse, R. Di Remigio,
    A. Alenaizan, A. M. James, S. Lehtola, J. P. Misiewicz, M. Scheurer,
    R. A. Shaw, J. B. Schriber, Y. Xie, Z. L. Glick, D. A. Sirianni,
    J. S. O'Brien, J. M. Waldrop, A. Kumar, E. G. Hohenstein,
    B. P. Pritchard, B. R. Brooks, H. F. Schaefer III, A. Yu. Sokolov,
    K. Patkowski, A. E. DePrince III, U. Bozkaya, R. A. King,
    F. A. Evangelista, J. M. Turney, T. D. Crawford, C. D. Sherrill,
    J. Chem. Phys. 152(18) 184108 (2020). https://doi.org/10.1063/5.0006002

                            Additional Code Authors
    E. T. Seidl, C. L. Janssen, E. F. Valeev, M. L. Leininger,
    J. F. Gonthier, R. M. Richard, H. R. McAlexander, M. Saitow, X. Wang,
    P. Verma, M. H. Lechner, A. Jiang, S. Behnle, A. G. Heide,
    M. F. Herbst, and D. L. Poole

             Previous Authors, Complete List of Code Contributors,
                       and Citations for Specific Modules
    https://github.com/psi4/psi4/blob/master/codemeta.json
    https://github.com/psi4/psi4/graphs/contributors
    http://psicode.org/psi4manual/master/introduction.html#citing-psifour

    -----------------------------------------------------------------------


    Psi4 started on: Thursday, 27 February 2025 05:52PM

    Process ID: 32346
    Host:       Moses-MBP.lan
    PSIDATADIR: /Users/moseschung/miniconda3/envs/psi4/share/psi4
    Memory:     9.3 GiB
    Threads:    10
    
  ==> Input QCSchema <==

--------------------------------------------------------------------------
{'driver': 'energy',
 'extras': {'psiapi': True, 'wfn_qcvars_only': True},
 'id': None,
 'keywords': {'SCF_TYPE': 'DF', 'function_kwargs': {}},
 'model': {'basis': 'aug-cc-pvtz', 'method': 'mp2'},
 'molecule': {'atom_labels': ['', '', '', '', '', '', '', '', '', '', '', '', '', '', '', '', '', ''],
              'atomic_numbers': [6, 6, 8, 1, 1, 1, 1, 1, 1, 6, 6, 8, 1, 1, 1, 1, 1, 1],
              'extras': {},
              'fix_com': True,
              'fix_orientation': True,
              'fix_symmetry': 'c1',
              'fragment_charges': [0.0, 0.0],
              'fragment_multiplicities': [1, 1],
              'fragments': [[0, 1, 2, 3, 4, 5, 6, 7, 8], [9, 10, 11, 12, 13, 14, 15, 16, 17]],
              'geometry': [-2.4333493091466583, 2.092584445573475, -0.30575012819457476, -3.3470148832703885,
                           -0.60495991426894, -0.39187250663618983, -5.894371369565918, -0.8557095635820646,
                           0.3393343408962113, -6.0895498427077035, -0.10750273982504494, 1.981385401447035,
                           -0.47875077552798806, 2.248141031042787, -0.9599222902226875, -2.5096035377611323,
                           2.8266976918868303, 1.628416686555645, -3.62249537838738, 3.2959960573352785,
                           -1.4866758887895555, -2.1168901029991134, -1.8165502607017248, 0.7713314023542471,
                           -3.2374221063505875, -1.340603838743916, -2.320113140256974, 3.4558990128931435,
                           -2.489927709342865, -0.5193156365370657, 3.8449331508888958, -0.19629341155580643,
                           1.1077234396731206, 4.2259321733992, 1.8935093571609949, -0.5039408247803409,
                           4.556949829617272, 3.367270857609171, 0.49808456351754704, 3.1060407872042575,
                           -4.16197061323083, 0.6359230768345665, 5.11653741961397, -2.835534051249471,
                           -1.6921023467096992, 1.8384351789606517, -2.216312373911701, -1.7725536570488156,
                           5.476809925980254, -0.47386961294593044, 2.3620556116115106, 2.184646233227404,
                           0.10341715194180508, 2.3263057727700986],
              'mass_numbers': [12, 12, 16, 1, 1, 1, 1, 1, 1, 12, 12, 16, 1, 1, 1, 1, 1, 1],
              'masses': [12.0, 12.0, 15.99491461957, 1.00782503223, 1.00782503223, 1.00782503223, 1.00782503223,
                         1.00782503223, 1.00782503223, 12.0, 12.0, 15.99491461957, 1.00782503223, 1.00782503223,
                         1.00782503223, 1.00782503223, 1.00782503223, 1.00782503223],
              'molecular_charge': 0.0,
              'molecular_multiplicity': 1,
              'name': 'dimer',
              'provenance': {'creator': 'QCElemental',
                             'routine': 'qcelemental.molparse.from_string',
                             'version': '0.29.0'},
              'real': [True, True, True, True, True, True, True, True, True, True, True, True, True, True, True, True,
                       True, True],
              'schema_name': 'qcschema_molecule',
              'schema_version': 2,
              'symbols': ['C', 'C', 'O', 'H', 'H', 'H', 'H', 'H', 'H', 'C', 'C', 'O', 'H', 'H', 'H', 'H', 'H', 'H'],
              'validated': True},
 'protocols': {'stdout': True},
 'provenance': {'creator': 'QCElemental', 'routine': 'qcelemental.models.results', 'version': '0.29.0'},
 'schema_name': 'qcschema_input',
 'schema_version': 1}
--------------------------------------------------------------------------

Scratch directory: /tmp/
   => Libint2 <=

    Primary   basis highest AM E, G, H:  6, 6, 3
    Auxiliary basis highest AM E, G, H:  7, 7, 4
    Onebody   basis highest AM E, G, H:  -, -, -
    Solid Harmonics ordering:            Gaussian

*** tstart() called on Moses-MBP.lan
*** at Thu Feb 27 17:53:14 2025

   => Loading Basis Set <=

    Name: AUG-CC-PVTZ
    Role: ORBITAL
    Keyword: BASIS
    atoms 1-2, 10-11 entry C          line   239 file /Users/moseschung/miniconda3/envs/psi4/share/psi4/basis/aug-cc-pvtz.gbs 
    atoms 3, 12      entry O          line   331 file /Users/moseschung/miniconda3/envs/psi4/share/psi4/basis/aug-cc-pvtz.gbs 
    atoms 4-9, 13-18 entry H          line    40 file /Users/moseschung/miniconda3/envs/psi4/share/psi4/basis/aug-cc-pvtz.gbs 


         ---------------------------------------------------------
                                   SCF
               by Justin Turney, Rob Parrish, Andy Simmonett
                          and Daniel G. A. Smith
                              RHF Reference
                       10 Threads,   9536 MiB Core
         ---------------------------------------------------------

  ==> Geometry <==

    Molecular point group: c1
    Full point group: C1

    Geometry (in Bohr), charge = 0, multiplicity = 1:

       Center              X                  Y                   Z               Mass       
    ------------   -----------------  -----------------  -----------------  -----------------
         C           -2.433349309147     2.092584445573    -0.305750128195    12.000000000000
         C           -3.347014883270    -0.604959914269    -0.391872506636    12.000000000000
         O           -5.894371369566    -0.855709563582     0.339334340896    15.994914619570
         H           -6.089549842708    -0.107502739825     1.981385401447     1.007825032230
         H           -0.478750775528     2.248141031043    -0.959922290223     1.007825032230
         H           -2.509603537761     2.826697691887     1.628416686556     1.007825032230
         H           -3.622495378387     3.295996057335    -1.486675888790     1.007825032230
         H           -2.116890102999    -1.816550260702     0.771331402354     1.007825032230
         H           -3.237422106351    -1.340603838744    -2.320113140257     1.007825032230
         C            3.455899012893    -2.489927709343    -0.519315636537    12.000000000000
         C            3.844933150889    -0.196293411556     1.107723439673    12.000000000000
         O            4.225932173399     1.893509357161    -0.503940824780    15.994914619570
         H            4.556949829617     3.367270857609     0.498084563518     1.007825032230
         H            3.106040787204    -4.161970613231     0.635923076835     1.007825032230
         H            5.116537419614    -2.835534051249    -1.692102346710     1.007825032230
         H            1.838435178961    -2.216312373912    -1.772553657049     1.007825032230
         H            5.476809925980    -0.473869612946     2.362055611612     1.007825032230
         H            2.184646233227     0.103417151942     2.326305772770     1.007825032230

  Running in c1 symmetry.

  Rotational constants: A =      0.18133  B =      0.03771  C =      0.03330 [cm^-1]
  Rotational constants: A =   5436.13642  B =   1130.60016  C =    998.32715 [MHz]
  Nuclear repulsion =  249.571615337279241

  Charge       = 0
  Multiplicity = 1
  Electrons    = 52
  Nalpha       = 26
  Nbeta        = 26

  ==> Algorithm <==

  SCF Algorithm Type is DF.
  DIIS enabled.
  MOM disabled.
  Fractional occupation disabled.
  Guess Type is SAD.
  Energy threshold   = 1.00e-08
  Density threshold  = 1.00e-08
  Integral threshold = 1.00e-12

  ==> Primary Basis <==

  Basis Set: AUG-CC-PVTZ
    Blend: AUG-CC-PVTZ
    Number of shells: 192
    Number of basis functions: 552
    Number of Cartesian functions: 630
    Spherical Harmonics?: true
    Max angular momentum: 3

   => Loading Basis Set <=

    Name: (AUG-CC-PVTZ AUX)
    Role: JKFIT
    Keyword: DF_BASIS_SCF
    atoms 1-2, 10-11 entry C          line   162 file /Users/moseschung/miniconda3/envs/psi4/share/psi4/basis/aug-cc-pvtz-jkfit.gbs 
    atoms 3, 12      entry O          line   286 file /Users/moseschung/miniconda3/envs/psi4/share/psi4/basis/aug-cc-pvtz-jkfit.gbs 
    atoms 4-9, 13-18 entry H          line    70 file /Users/moseschung/miniconda3/envs/psi4/share/psi4/basis/aug-cc-pvtz-jkfit.gbs 

  ==> Integral Setup <==

  DFHelper Memory: AOs need 2.606 GiB; user supplied 6.985 GiB. 
  Using in-core AOs.

  ==> MemDFJK: Density-Fitted J/K Matrices <==

    J tasked:                   Yes
    K tasked:                   Yes
    wK tasked:                   No
    OpenMP threads:              10
    Memory [MiB]:              7152
    Algorithm:                 Core
    Schwarz Cutoff:           1E-12
    Mask sparsity (%):       5.9166
    Fitting Condition:        1E-10

   => Auxiliary Basis Set <=

  Basis Set: (AUG-CC-PVTZ AUX)
    Blend: AUG-CC-PVTZ-JKFIT
    Number of shells: 348
    Number of basis functions: 1176
    Number of Cartesian functions: 1446
    Spherical Harmonics?: true
    Max angular momentum: 4

  Minimum eigenvalue in the overlap matrix is 5.9966581912E-06.
  Reciprocal condition number of the overlap matrix is 3.1260896355E-07.
    Using symmetric orthogonalization.

  ==> Pre-Iterations <==

  SCF Guess: Superposition of Atomic Densities via on-the-fly atomic UHF (no occupation information).

   -------------------------
    Irrep   Nso     Nmo    
   -------------------------
     A        552     552 
   -------------------------
    Total     552     552
   -------------------------

  ==> Iterations <==

                           Total Energy        Delta E     RMS |[F,P]|

   @DF-RHF iter SAD:  -307.08414474294796   -3.07084e+02   0.00000e+00 
   @DF-RHF iter   1:  -308.00376600671251   -9.19621e-01   1.32631e-03 ADIIS/DIIS
   @DF-RHF iter   2:  -308.22673793130019   -2.22972e-01   7.07578e-04 ADIIS/DIIS
   @DF-RHF iter   3:  -308.28430469446511   -5.75668e-02   1.20149e-04 ADIIS/DIIS
   @DF-RHF iter   4:  -308.28753848189228   -3.23379e-03   4.51145e-05 DIIS
   @DF-RHF iter   5:  -308.28789796848565   -3.59487e-04   8.58836e-06 DIIS
   @DF-RHF iter   6:  -308.28791858037096   -2.06119e-05   1.97790e-06 DIIS
   @DF-RHF iter   7:  -308.28791994426734   -1.36390e-06   5.92158e-07 DIIS
   @DF-RHF iter   8:  -308.28792005086586   -1.06599e-07   1.74201e-07 DIIS
   @DF-RHF iter   9:  -308.28792006209432   -1.12285e-08   4.44056e-08 DIIS
   @DF-RHF iter  10:  -308.28792006286062   -7.66306e-10   1.32963e-08 DIIS
   @DF-RHF iter  11:  -308.28792006289962   -3.89946e-11   4.86945e-09 DIIS
  Energy and wave function converged.


  ==> Post-Iterations <==

    Orbital Energies [Eh]
    ---------------------

    Doubly Occupied:                                                      

       1A    -20.562713     2A    -20.552971     3A    -11.279671  
       4A    -11.270155     5A    -11.215863     6A    -11.211244  
       7A     -1.369599     8A     -1.360128     9A     -1.020888  
      10A     -1.009187    11A     -0.845349    12A     -0.838898  
      13A     -0.710692    14A     -0.684572    15A     -0.655667  
      16A     -0.620573    17A     -0.608123    18A     -0.580730  
      19A     -0.540404    20A     -0.538160    21A     -0.533352  
      22A     -0.517264    23A     -0.495338    24A     -0.477783  
      25A     -0.446618    26A     -0.438903  

    Virtual:                                                              

      27A      0.024302    28A      0.035523    29A      0.036303  
      30A      0.038754    31A      0.053558    32A      0.054167  
      33A      0.056235    34A      0.058529    35A      0.068148  
      36A      0.083503    37A      0.084589    38A      0.087145  
      39A      0.106874    40A      0.113089    41A      0.120267  
      42A      0.126319    43A      0.127179    44A      0.131341  
      45A      0.133839    46A      0.147374    47A      0.152040  
      48A      0.156594    49A      0.159224    50A      0.161446  
      51A      0.169537    52A      0.174041    53A      0.181004  
      54A      0.183083    55A      0.199138    56A      0.206640  
      57A      0.220222    58A      0.221710    59A      0.229263  
      60A      0.238441    61A      0.245865    62A      0.252780  
      63A      0.267394    64A      0.273191    65A      0.278475  
      66A      0.287023    67A      0.293762    68A      0.298334  
      69A      0.306991    70A      0.308594    71A      0.316813  
      72A      0.321052    73A      0.322655    74A      0.326582  
      75A      0.334616    76A      0.339813    77A      0.342839  
      78A      0.351793    79A      0.360857    80A      0.364034  
      81A      0.367691    82A      0.371454    83A      0.378362  
      84A      0.382837    85A      0.389490    86A      0.396199  
      87A      0.401842    88A      0.404644    89A      0.415135  
      90A      0.416463    91A      0.421161    92A      0.428481  
      93A      0.432602    94A      0.434945    95A      0.443030  
      96A      0.445848    97A      0.453249    98A      0.455653  
      99A      0.466616   100A      0.469655   101A      0.473516  
     102A      0.477688   103A      0.483727   104A      0.491464  
     105A      0.500666   106A      0.503567   107A      0.506536  
     108A      0.514255   109A      0.521189   110A      0.525273  
     111A      0.534004   112A      0.541182   113A      0.549870  
     114A      0.553863   115A      0.559833   116A      0.570941  
     117A      0.575239   118A      0.576827   119A      0.584317  
     120A      0.588817   121A      0.589377   122A      0.600541  
     123A      0.607483   124A      0.619640   125A      0.624491  
     126A      0.629028   127A      0.635046   128A      0.649881  
     129A      0.669218   130A      0.672148   131A      0.681397  
     132A      0.702567   133A      0.714554   134A      0.723092  
     135A      0.731719   136A      0.743870   137A      0.753833  
     138A      0.761992   139A      0.773959   140A      0.787739  
     141A      0.792829   142A      0.802027   143A      0.803493  
     144A      0.814681   145A      0.824525   146A      0.833165  
     147A      0.841363   148A      0.849428   149A      0.858502  
     150A      0.862457   151A      0.871626   152A      0.880891  
     153A      0.886741   154A      0.896757   155A      0.902388  
     156A      0.905315   157A      0.915702   158A      0.921556  
     159A      0.926360   160A      0.933779   161A      0.947586  
     162A      0.953110   163A      0.958301   164A      0.960238  
     165A      0.969292   166A      0.979648   167A      0.986853  
     168A      0.993496   169A      0.996889   170A      1.000306  
     171A      1.010536   172A      1.017512   173A      1.021603  
     174A      1.034815   175A      1.035751   176A      1.044228  
     177A      1.050766   178A      1.063516   179A      1.066659  
     180A      1.070261   181A      1.077316   182A      1.089523  
     183A      1.092990   184A      1.097019   185A      1.098402  
     186A      1.115465   187A      1.122564   188A      1.124936  
     189A      1.129145   190A      1.136926   191A      1.147685  
     192A      1.153656   193A      1.168258   194A      1.172963  
     195A      1.177642   196A      1.179738   197A      1.184340  
     198A      1.196364   199A      1.201666   200A      1.207151  
     201A      1.225835   202A      1.231198   203A      1.235490  
     204A      1.239730   205A      1.245335   206A      1.269679  
     207A      1.274907   208A      1.289452   209A      1.296269  
     210A      1.306696   211A      1.309400   212A      1.315110  
     213A      1.323275   214A      1.342686   215A      1.355154  
     216A      1.358338   217A      1.364983   218A      1.369564  
     219A      1.376608   220A      1.387194   221A      1.414651  
     222A      1.417133   223A      1.421554   224A      1.432931  
     225A      1.444748   226A      1.453524   227A      1.469330  
     228A      1.473820   229A      1.481768   230A      1.490686  
     231A      1.497383   232A      1.513367   233A      1.518411  
     234A      1.532898   235A      1.540337   236A      1.559604  
     237A      1.565644   238A      1.583089   239A      1.595599  
     240A      1.598332   241A      1.614719   242A      1.619361  
     243A      1.626545   244A      1.637738   245A      1.647706  
     246A      1.655108   247A      1.665974   248A      1.666689  
     249A      1.681249   250A      1.691071   251A      1.692835  
     252A      1.707992   253A      1.713517   254A      1.716491  
     255A      1.734527   256A      1.741770   257A      1.749056  
     258A      1.757975   259A      1.769103   260A      1.772727  
     261A      1.782754   262A      1.795482   263A      1.804213  
     264A      1.810233   265A      1.813366   266A      1.827031  
     267A      1.839244   268A      1.845387   269A      1.849009  
     270A      1.856742   271A      1.886733   272A      1.914823  
     273A      1.917512   274A      1.922838   275A      1.936920  
     276A      1.947358   277A      1.955951   278A      1.966313  
     279A      1.979945   280A      1.994549   281A      2.006238  
     282A      2.012054   283A      2.023718   284A      2.037826  
     285A      2.053139   286A      2.058559   287A      2.061729  
     288A      2.068229   289A      2.094977   290A      2.105829  
     291A      2.107750   292A      2.124489   293A      2.134733  
     294A      2.149338   295A      2.163359   296A      2.167509  
     297A      2.191844   298A      2.216188   299A      2.219544  
     300A      2.237991   301A      2.241879   302A      2.268195  
     303A      2.281867   304A      2.287050   305A      2.296206  
     306A      2.307586   307A      2.324296   308A      2.353885  
     309A      2.371796   310A      2.408322   311A      2.418371  
     312A      2.425207   313A      2.439830   314A      2.450144  
     315A      2.466506   316A      2.496048   317A      2.500658  
     318A      2.540879   319A      2.566460   320A      2.569905  
     321A      2.615441   322A      2.633698   323A      2.657840  
     324A      2.687755   325A      2.722852   326A      2.726251  
     327A      2.734722   328A      2.784523   329A      2.814784  
     330A      2.840632   331A      2.880251   332A      2.900548  
     333A      2.909977   334A      2.921144   335A      2.945202  
     336A      2.962235   337A      2.973659   338A      2.985040  
     339A      3.005033   340A      3.027438   341A      3.039609  
     342A      3.056057   343A      3.075876   344A      3.123329  
     345A      3.146389   346A      3.203198   347A      3.224149  
     348A      3.247624   349A      3.324097   350A      3.351297  
     351A      3.387239   352A      3.446145   353A      3.462435  
     354A      3.475192   355A      3.486173   356A      3.496718  
     357A      3.521020   358A      3.528399   359A      3.556311  
     360A      3.571537   361A      3.607353   362A      3.621365  
     363A      3.630718   364A      3.651007   365A      3.655675  
     366A      3.669247   367A      3.701555   368A      3.711339  
     369A      3.717915   370A      3.729893   371A      3.749412  
     372A      3.766656   373A      3.781496   374A      3.796031  
     375A      3.818503   376A      3.830117   377A      3.834144  
     378A      3.859430   379A      3.868551   380A      3.884592  
     381A      3.897655   382A      3.903544   383A      3.925175  
     384A      3.940301   385A      3.943436   386A      3.966508  
     387A      3.990288   388A      3.993059   389A      4.003355  
     390A      4.009931   391A      4.021463   392A      4.035218  
     393A      4.045499   394A      4.053961   395A      4.066321  
     396A      4.078281   397A      4.097620   398A      4.106481  
     399A      4.124324   400A      4.129679   401A      4.154095  
     402A      4.167075   403A      4.183368   404A      4.196963  
     405A      4.214508   406A      4.220150   407A      4.233096  
     408A      4.243566   409A      4.269973   410A      4.285690  
     411A      4.314866   412A      4.327575   413A      4.331689  
     414A      4.348470   415A      4.365692   416A      4.384505  
     417A      4.392133   418A      4.407523   419A      4.410210  
     420A      4.440450   421A      4.487623   422A      4.507100  
     423A      4.523797   424A      4.536753   425A      4.553440  
     426A      4.563811   427A      4.579878   428A      4.588720  
     429A      4.607769   430A      4.624955   431A      4.630514  
     432A      4.654620   433A      4.674292   434A      4.697761  
     435A      4.699134   436A      4.714585   437A      4.731502  
     438A      4.752693   439A      4.780180   440A      4.788907  
     441A      4.809766   442A      4.839652   443A      4.847540  
     444A      4.871823   445A      4.882241   446A      4.893970  
     447A      4.921400   448A      4.924997   449A      4.946012  
     450A      4.958601   451A      4.972234   452A      4.994173  
     453A      5.002003   454A      5.019473   455A      5.031046  
     456A      5.072131   457A      5.079415   458A      5.090711  
     459A      5.103235   460A      5.117039   461A      5.142634  
     462A      5.159134   463A      5.171182   464A      5.175845  
     465A      5.198951   466A      5.219493   467A      5.247927  
     468A      5.259256   469A      5.280781   470A      5.318377  
     471A      5.323160   472A      5.348028   473A      5.364170  
     474A      5.389293   475A      5.398621   476A      5.420143  
     477A      5.433953   478A      5.464626   479A      5.477252  
     480A      5.494089   481A      5.508442   482A      5.519517  
     483A      5.551318   484A      5.576405   485A      5.586321  
     486A      5.600435   487A      5.628361   488A      5.638339  
     489A      5.660526   490A      5.703389   491A      5.731020  
     492A      5.749698   493A      5.763594   494A      5.786208  
     495A      5.805130   496A      5.830282   497A      5.854819  
     498A      5.887862   499A      6.028412   500A      6.036733  
     501A      6.065737   502A      6.087790   503A      6.096919  
     504A      6.157118   505A      6.170711   506A      6.210030  
     507A      6.225469   508A      6.250933   509A      6.273287  
     510A      6.284933   511A      6.297623   512A      6.311997  
     513A      6.427608   514A      6.441761   515A      6.699862  
     516A      6.718247   517A      6.752683   518A      6.797568  
     519A      6.812680   520A      6.865446   521A      6.904761  
     522A      6.918177   523A      6.956598   524A      6.987965  
     525A      6.994919   526A      7.003884   527A      7.143908  
     528A      7.200153   529A      7.355277   530A      7.361796  
     531A      7.387799   532A      7.404126   533A      7.468055  
     534A      7.535945   535A      7.545247   536A      7.554633  
     537A      7.628875   538A      7.665777   539A      7.841832  
     540A      7.871595   541A      7.960150   542A      7.985805  
     543A      8.247869   544A      8.290256   545A      8.632265  
     546A      8.645087   547A     16.245961   548A     16.439775  
     549A     17.951848   550A     18.147891   551A     18.609350  
     552A     19.063367  

    Final Occupation by Irrep:
              A 
    DOCC [    26 ]
    NA   [    26 ]
    NB   [    26 ]

  @DF-RHF Final Energy:  -308.28792006289962

   => Energetics <=

    Nuclear Repulsion Energy =            249.5716153372792405
    One-Electron Energy =                -914.9493818373365457
    Two-Electron Energy =                 357.0898464371576893
    Total Energy =                       -308.2879200628996159

Computation Completed


Properties will be evaluated at   0.000000,   0.000000,   0.000000 [a0]

Properties computed using the SCF density matrix


 Multipole Moments:

 ------------------------------------------------------------------------------------
     Multipole            Electronic (a.u.)      Nuclear  (a.u.)        Total (a.u.)
 ------------------------------------------------------------------------------------

 L = 1.  Multiply by 2.5417464519 to convert [e a0] to [Debye]
 Dipole X            :          0.6493297            0.0000019            0.6493316
 Dipole Y            :          0.3420606           -0.0000019            0.3420587
 Dipole Z            :          0.9548818           -0.0000057            0.9548762
 Magnitude           :                                                    1.2043356

 ------------------------------------------------------------------------------------

*** tstop() called on Moses-MBP.lan at Thu Feb 27 17:53:25 2025
Module time:
	user time   =      92.69 seconds =       1.54 minutes
	system time =       7.45 seconds =       0.12 minutes
	total time  =         11 seconds =       0.18 minutes
Total time:
	user time   =     275.39 seconds =       4.59 minutes
	system time =      25.66 seconds =       0.43 minutes
	total time  =         38 seconds =       0.63 minutes

*** tstart() called on Moses-MBP.lan
*** at Thu Feb 27 17:53:25 2025


  //>>>>>>>>>>>>>>>>>>>>>>>>>>>>>>>>>>>//
  //               DFMP2               //
  //<<<<<<<<<<<<<<<<<<<<<<<<<<<<<<<<<<<//

   => Loading Basis Set <=

    Name: (AUG-CC-PVTZ AUX)
    Role: RIFIT
    Keyword: DF_BASIS_MP2
    atoms 1-2, 10-11 entry C          line   148 file /Users/moseschung/miniconda3/envs/psi4/share/psi4/basis/aug-cc-pvtz-ri.gbs 
    atoms 3, 12      entry O          line   264 file /Users/moseschung/miniconda3/envs/psi4/share/psi4/basis/aug-cc-pvtz-ri.gbs 
    atoms 4-9, 13-18 entry H          line    30 file /Users/moseschung/miniconda3/envs/psi4/share/psi4/basis/aug-cc-pvtz-ri.gbs 

	 --------------------------------------------------------
	                          DF-MP2                         
	      2nd-Order Density-Fitted Moller-Plesset Theory     
	              RMP2 Wavefunction,  10 Threads             
	                                                         
	        Rob Parrish, Justin Turney, Andy Simmonett,      
	           Ed Hohenstein, and C. David Sherrill          
	 --------------------------------------------------------

   => Auxiliary Basis Set <=

  Basis Set: (AUG-CC-PVTZ AUX)
    Blend: AUG-CC-PVTZ-RI
    Number of shells: 336
    Number of basis functions: 1188
    Number of Cartesian functions: 1476
    Spherical Harmonics?: true
    Max angular momentum: 4

	 --------------------------------------------------------
	                 NBF =   552, NAUX =  1188
	 --------------------------------------------------------
	   CLASS    FOCC     OCC    AOCC    AVIR     VIR    FVIR
	   PAIRS       0      26      26     526     526       0
	 --------------------------------------------------------

	-----------------------------------------------------------
	 ==================> DF-MP2 Energies <==================== 
	-----------------------------------------------------------
	 Reference Energy          =    -308.2879200628996159 [Eh]
	 Singles Energy            =      -0.0000000000000000 [Eh]
	 Same-Spin Energy          =      -0.2991094694208324 [Eh]
	 Opposite-Spin Energy      =      -1.0396785059059506 [Eh]
	 Correlation Energy        =      -1.3387879753267828 [Eh]
	 Total Energy              =    -309.6267080382264112 [Eh]
	-----------------------------------------------------------
	 ================> DF-SCS-MP2 Energies <================== 
	-----------------------------------------------------------
	 SCS Same-Spin Scale       =       0.3333333333333333 [-]
	 SCS Opposite-Spin Scale   =       1.2000000000000000 [-]
	 SCS Same-Spin Energy      =      -0.0997031564736108 [Eh]
	 SCS Opposite-Spin Energy  =      -1.2476142070871405 [Eh]
	 SCS Correlation Energy    =      -1.3473173635607514 [Eh]
	 SCS Total Energy          =    -309.6352374264603782 [Eh]
	-----------------------------------------------------------


*** tstop() called on Moses-MBP.lan at Thu Feb 27 17:53:30 2025
Module time:
	user time   =      32.77 seconds =       0.55 minutes
	system time =       2.47 seconds =       0.04 minutes
	total time  =          5 seconds =       0.08 minutes
Total time:
	user time   =     308.16 seconds =       5.14 minutes
	system time =      28.13 seconds =       0.47 minutes
	total time  =         43 seconds =       0.72 minutes

    Psi4 stopped on: Thursday, 27 February 2025 05:53PM
    Psi4 wall time for execution: 0:00:16.42


  //>>>>>>>>>>>>>>>>>>>>>>>>>>>>>>>>>>>//
  //          ManyBody Results         //
  //<<<<<<<<<<<<<<<<<<<<<<<<<<<<<<<<<<<//


   ==> N-Body: Counterpoise Corrected (CP) energies <==

        n-Body     Total Energy            Interaction Energy                          N-body Contribution to Interaction Energy
                   [Eh]                    [Eh]                  [kcal/mol]            [Eh]                  [kcal/mol]
             1  N/A                         0.000000000000        0.000000000000        0.000000000000        0.000000000000
  FULL/RTN   2  N/A                        -0.002672697278       -1.677142862735       -0.002672697278       -1.677142862735


    Psi4 stopped on: Thursday, 27 February 2025 05:53PM
    Psi4 wall time for execution: 0:00:45.39

*** Psi4 exiting successfully. Buy a developer a beer!
