
    -----------------------------------------------------------------------
          Psi4: An Open-Source Ab Initio Electronic Structure Package
                               Psi4 1.9.1 release

                         Git: Rev {} zzzzzzz 


    D. G. A. Smith, L. A. Burns, A. C. Simmonett, R. M. Parrish,
    M. C. Schieber, R. Galvelis, P. Kraus, H. Kruse, R. Di Remigio,
    A. Alenaizan, A. M. James, S. Lehtola, J. P. Misiewicz, M. Scheurer,
    R. A. Shaw, J. B. Schriber, Y. Xie, Z. L. Glick, D. A. Sirianni,
    J. S. O'Brien, J. M. Waldrop, A. Kumar, E. G. Hohenstein,
    B. P. Pritchard, B. R. Brooks, H. F. Schaefer III, A. Yu. Sokolov,
    K. Patkowski, A. E. DePrince III, U. Bozkaya, R. A. King,
    F. A. Evangelista, J. M. Turney, T. D. Crawford, C. D. Sherrill,
    J. Chem. Phys. 152(18) 184108 (2020). https://doi.org/10.1063/5.0006002

                            Additional Code Authors
    E. T. Seidl, C. L. Janssen, E. F. Valeev, M. L. Leininger,
    J. F. Gonthier, R. M. Richard, H. R. McAlexander, M. Saitow, X. Wang,
    P. Verma, M. H. Lechner, A. Jiang, S. Behnle, A. G. Heide,
    M. F. Herbst, and D. L. Poole

             Previous Authors, Complete List of Code Contributors,
                       and Citations for Specific Modules
    https://github.com/psi4/psi4/blob/master/codemeta.json
    https://github.com/psi4/psi4/graphs/contributors
    http://psicode.org/psi4manual/master/introduction.html#citing-psifour

    -----------------------------------------------------------------------


    Psi4 started on: Thursday, 27 February 2025 05:52PM

    Process ID: 32325
    Host:       Moses-MBP.lan
    PSIDATADIR: /Users/moseschung/miniconda3/envs/psi4/share/psi4
    Memory:     500.0 MiB
    Threads:    10
    
  ==> Input File <==

--------------------------------------------------------------------------
MEMORY 10 GB

molecule dimer {
0 1
C   -1.193277  -0.706714   0.501279
C   -2.076043  -0.011608  -0.503934
O   -3.268800   0.479011   0.065369
H   -3.727558  -0.256160   0.479429
H   -0.252172  -1.025888   0.044345
H   -1.690324  -1.592920   0.908402
H   -0.966587  -0.037044   1.334894
H   -2.289579  -0.682301  -1.348864
H   -1.564720   0.860285  -0.921796
--
0 1
C    1.909877   1.326801  -0.067993
C    2.404113   0.002593   0.440661
O    2.144878  -0.968276  -0.551699
H    2.497641  -1.812724  -0.264602
H    2.090757   2.116631   0.662536
H    0.836941   1.282336  -0.267517
H    2.415726   1.591170  -0.998192
H    1.893826  -0.254203   1.381037
H    3.479404   0.058505   0.660893

units ang
no_reorient
no_com
symmetry c1
}

set {
basis        aug-cc-pVTZ
scf_type     df
}

energy("mp2", bsse_type="cp")
--------------------------------------------------------------------------

  Memory set to   9.313 GiB by Python driver.

Scratch directory: /tmp/

  //>>>>>>>>>>>>>>>>>>>>>>>>>>>>>>>>>>>>>//
  // ManyBody Setup: N-Body Levels [1, 2]//
  //<<<<<<<<<<<<<<<<<<<<<<<<<<<<<<<<<<<<<//

        Number of 1-body computations:     2
        Number of 2-body computations:     1

    -----------------------------------------------------------------------
          Psi4: An Open-Source Ab Initio Electronic Structure Package
                               Psi4 1.9.1 release

                         Git: Rev {} zzzzzzz 


    D. G. A. Smith, L. A. Burns, A. C. Simmonett, R. M. Parrish,
    M. C. Schieber, R. Galvelis, P. Kraus, H. Kruse, R. Di Remigio,
    A. Alenaizan, A. M. James, S. Lehtola, J. P. Misiewicz, M. Scheurer,
    R. A. Shaw, J. B. Schriber, Y. Xie, Z. L. Glick, D. A. Sirianni,
    J. S. O'Brien, J. M. Waldrop, A. Kumar, E. G. Hohenstein,
    B. P. Pritchard, B. R. Brooks, H. F. Schaefer III, A. Yu. Sokolov,
    K. Patkowski, A. E. DePrince III, U. Bozkaya, R. A. King,
    F. A. Evangelista, J. M. Turney, T. D. Crawford, C. D. Sherrill,
    J. Chem. Phys. 152(18) 184108 (2020). https://doi.org/10.1063/5.0006002

                            Additional Code Authors
    E. T. Seidl, C. L. Janssen, E. F. Valeev, M. L. Leininger,
    J. F. Gonthier, R. M. Richard, H. R. McAlexander, M. Saitow, X. Wang,
    P. Verma, M. H. Lechner, A. Jiang, S. Behnle, A. G. Heide,
    M. F. Herbst, and D. L. Poole

             Previous Authors, Complete List of Code Contributors,
                       and Citations for Specific Modules
    https://github.com/psi4/psi4/blob/master/codemeta.json
    https://github.com/psi4/psi4/graphs/contributors
    http://psicode.org/psi4manual/master/introduction.html#citing-psifour

    -----------------------------------------------------------------------


    Psi4 started on: Thursday, 27 February 2025 05:52PM

    Process ID: 32325
    Host:       Moses-MBP.lan
    PSIDATADIR: /Users/moseschung/miniconda3/envs/psi4/share/psi4
    Memory:     9.3 GiB
    Threads:    10
    
  ==> Input QCSchema <==

--------------------------------------------------------------------------
{'driver': 'energy',
 'extras': {'psiapi': True, 'wfn_qcvars_only': True},
 'id': None,
 'keywords': {'SCF_TYPE': 'DF', 'function_kwargs': {}},
 'model': {'basis': 'aug-cc-pvtz', 'method': 'mp2'},
 'molecule': {'atom_labels': ['', '', '', '', '', '', '', '', '', '', '', '', '', '', '', '', '', ''],
              'atomic_numbers': [6, 6, 8, 1, 1, 1, 1, 1, 1, 6, 6, 8, 1, 1, 1, 1, 1, 1],
              'extras': {},
              'fix_com': True,
              'fix_orientation': True,
              'fix_symmetry': 'c1',
              'fragment_charges': [0.0, 0.0],
              'fragment_multiplicities': [1, 1],
              'fragments': [[0, 1, 2, 3, 4, 5, 6, 7, 8], [9, 10, 11, 12, 13, 14, 15, 16, 17]],
              'geometry': [-2.2549667218079406, -1.3354959090268035, 0.9472800224433747, -3.9231526946738455,
                           -0.021935940864314468, -0.9522972453064652, -6.177136758896549, 0.9051996010816797,
                           0.12352950709505277, -7.044063736759331, -0.48407224429727724, 0.9059895066021211,
                           -0.47653601650895144, -1.9386473553936803, 0.0837999050334274, -3.194249423288378,
                           -3.0101825397642834, 1.7166309918181422, -1.8265847064279057, -0.07000301459145979,
                           2.522584066516902, -4.326677252599608, -1.2893620251260016, -2.548983540489548,
                           -2.956892263026373, 1.6257030398394876, -1.741941983542524, 3.60914446331102,
                           2.507290512983572, -0.1284881484482541, 4.543115144652796, 0.004900059843312148,
                           0.8327286041703721, 4.053231992519735, -1.829776453853804, -1.0425600136889583,
                           4.719857449714615, -3.425551901044416, -0.5000253122483922, 3.950958124883832,
                           3.999852898653928, 1.2520115882563276, 1.5815892731668002, 2.4232638408150895,
                           -0.5055338639041018, 4.565060534147737, 3.0068755190447325, -1.8863095006230004,
                           3.578812469271297, -0.4803740502697563, 2.6097816991239027, 6.57512063982247,
                           0.11055842696991024, 1.2489067682322004],
              'mass_numbers': [12, 12, 16, 1, 1, 1, 1, 1, 1, 12, 12, 16, 1, 1, 1, 1, 1, 1],
              'masses': [12.0, 12.0, 15.99491461957, 1.00782503223, 1.00782503223, 1.00782503223, 1.00782503223,
                         1.00782503223, 1.00782503223, 12.0, 12.0, 15.99491461957, 1.00782503223, 1.00782503223,
                         1.00782503223, 1.00782503223, 1.00782503223, 1.00782503223],
              'molecular_charge': 0.0,
              'molecular_multiplicity': 1,
              'name': 'dimer',
              'provenance': {'creator': 'QCElemental',
                             'routine': 'qcelemental.molparse.from_string',
                             'version': '0.29.0'},
              'real': [False, False, False, False, False, False, False, False, False, True, True, True, True, True,
                       True, True, True, True],
              'schema_name': 'qcschema_molecule',
              'schema_version': 2,
              'symbols': ['C', 'C', 'O', 'H', 'H', 'H', 'H', 'H', 'H', 'C', 'C', 'O', 'H', 'H', 'H', 'H', 'H', 'H'],
              'validated': True},
 'protocols': {'stdout': True},
 'provenance': {'creator': 'QCElemental', 'routine': 'qcelemental.models.results', 'version': '0.29.0'},
 'schema_name': 'qcschema_input',
 'schema_version': 1}
--------------------------------------------------------------------------

Scratch directory: /tmp/
   => Libint2 <=

    Primary   basis highest AM E, G, H:  6, 6, 3
    Auxiliary basis highest AM E, G, H:  7, 7, 4
    Onebody   basis highest AM E, G, H:  -, -, -
    Solid Harmonics ordering:            Gaussian

*** tstart() called on Moses-MBP.lan
*** at Thu Feb 27 17:52:02 2025

   => Loading Basis Set <=

    Name: AUG-CC-PVTZ
    Role: ORBITAL
    Keyword: BASIS
    atoms 1-2, 10-11 entry C          line   239 file /Users/moseschung/miniconda3/envs/psi4/share/psi4/basis/aug-cc-pvtz.gbs 
    atoms 3, 12      entry O          line   331 file /Users/moseschung/miniconda3/envs/psi4/share/psi4/basis/aug-cc-pvtz.gbs 
    atoms 4-9, 13-18 entry H          line    40 file /Users/moseschung/miniconda3/envs/psi4/share/psi4/basis/aug-cc-pvtz.gbs 


         ---------------------------------------------------------
                                   SCF
               by Justin Turney, Rob Parrish, Andy Simmonett
                          and Daniel G. A. Smith
                              RHF Reference
                       10 Threads,   9536 MiB Core
         ---------------------------------------------------------

  ==> Geometry <==

    Molecular point group: c1
    Full point group: C1

    Geometry (in Bohr), charge = 0, multiplicity = 1:

       Center              X                  Y                   Z               Mass       
    ------------   -----------------  -----------------  -----------------  -----------------
      Gh(C)          -2.254966721808    -1.335495909027     0.947280022443    12.000000000000
      Gh(C)          -3.923152694674    -0.021935940864    -0.952297245306    12.000000000000
      Gh(O)          -6.177136758897     0.905199601082     0.123529507095    15.994914619570
      Gh(H)          -7.044063736759    -0.484072244297     0.905989506602     1.007825032230
      Gh(H)          -0.476536016509    -1.938647355394     0.083799905033     1.007825032230
      Gh(H)          -3.194249423288    -3.010182539764     1.716630991818     1.007825032230
      Gh(H)          -1.826584706428    -0.070003014591     2.522584066517     1.007825032230
      Gh(H)          -4.326677252600    -1.289362025126    -2.548983540490     1.007825032230
      Gh(H)          -2.956892263026     1.625703039839    -1.741941983543     1.007825032230
         C            3.609144463311     2.507290512984    -0.128488148448    12.000000000000
         C            4.543115144653     0.004900059843     0.832728604170    12.000000000000
         O            4.053231992520    -1.829776453854    -1.042560013689    15.994914619570
         H            4.719857449715    -3.425551901044    -0.500025312248     1.007825032230
         H            3.950958124884     3.999852898654     1.252011588256     1.007825032230
         H            1.581589273167     2.423263840815    -0.505533863904     1.007825032230
         H            4.565060534148     3.006875519045    -1.886309500623     1.007825032230
         H            3.578812469271    -0.480374050270     2.609781699124     1.007825032230
         H            6.575120639822     0.110558426970     1.248906768232     1.007825032230

  Running in c1 symmetry.

  Rotational constants: A =      0.19720  B =      0.03318  C =      0.03076 [cm^-1]
  Rotational constants: A =   5911.89459  B =    994.56445  C =    922.13407 [MHz]
  Nuclear repulsion =   82.253752966216254

  Charge       = 0
  Multiplicity = 1
  Electrons    = 26
  Nalpha       = 13
  Nbeta        = 13

  ==> Algorithm <==

  SCF Algorithm Type is DF.
  DIIS enabled.
  MOM disabled.
  Fractional occupation disabled.
  Guess Type is SAD.
  Energy threshold   = 1.00e-08
  Density threshold  = 1.00e-08
  Integral threshold = 1.00e-12

  ==> Primary Basis <==

  Basis Set: AUG-CC-PVTZ
    Blend: AUG-CC-PVTZ
    Number of shells: 192
    Number of basis functions: 552
    Number of Cartesian functions: 630
    Spherical Harmonics?: true
    Max angular momentum: 3

   => Loading Basis Set <=

    Name: (AUG-CC-PVTZ AUX)
    Role: JKFIT
    Keyword: DF_BASIS_SCF
    atoms 1-2, 10-11 entry C          line   162 file /Users/moseschung/miniconda3/envs/psi4/share/psi4/basis/aug-cc-pvtz-jkfit.gbs 
    atoms 3, 12      entry O          line   286 file /Users/moseschung/miniconda3/envs/psi4/share/psi4/basis/aug-cc-pvtz-jkfit.gbs 
    atoms 4-9, 13-18 entry H          line    70 file /Users/moseschung/miniconda3/envs/psi4/share/psi4/basis/aug-cc-pvtz-jkfit.gbs 

  ==> Integral Setup <==

  DFHelper Memory: AOs need 2.569 GiB; user supplied 6.985 GiB. 
  Using in-core AOs.

  ==> MemDFJK: Density-Fitted J/K Matrices <==

    J tasked:                   Yes
    K tasked:                   Yes
    wK tasked:                   No
    OpenMP threads:              10
    Memory [MiB]:              7152
    Algorithm:                 Core
    Schwarz Cutoff:           1E-12
    Mask sparsity (%):       7.2976
    Fitting Condition:        1E-10

   => Auxiliary Basis Set <=

  Basis Set: (AUG-CC-PVTZ AUX)
    Blend: AUG-CC-PVTZ-JKFIT
    Number of shells: 348
    Number of basis functions: 1176
    Number of Cartesian functions: 1446
    Spherical Harmonics?: true
    Max angular momentum: 4

  Minimum eigenvalue in the overlap matrix is 7.4683265903E-06.
  Reciprocal condition number of the overlap matrix is 4.0398040824E-07.
    Using symmetric orthogonalization.

  ==> Pre-Iterations <==

  SCF Guess: Superposition of Atomic Densities via on-the-fly atomic UHF (no occupation information).

   -------------------------
    Irrep   Nso     Nmo    
   -------------------------
     A        552     552 
   -------------------------
    Total     552     552
   -------------------------

  ==> Iterations <==

                           Total Energy        Delta E     RMS |[F,P]|

   @DF-RHF iter SAD:  -153.44914882520976   -1.53449e+02   0.00000e+00 
   @DF-RHF iter   1:  -153.99871545329790   -5.49567e-01   9.60826e-04 ADIIS/DIIS
   @DF-RHF iter   2:  -154.11085361215768   -1.12138e-01   5.34935e-04 ADIIS/DIIS
   @DF-RHF iter   3:  -154.14385501921447   -3.30014e-02   8.44620e-05 DIIS
   @DF-RHF iter   4:  -154.14545221373950   -1.59719e-03   3.23820e-05 DIIS
   @DF-RHF iter   5:  -154.14563656071169   -1.84347e-04   5.76344e-06 DIIS
   @DF-RHF iter   6:  -154.14564616496136   -9.60425e-06   1.27633e-06 DIIS
   @DF-RHF iter   7:  -154.14564672057043   -5.55609e-07   3.91983e-07 DIIS
   @DF-RHF iter   8:  -154.14564676439514   -4.38247e-08   1.05060e-07 DIIS
   @DF-RHF iter   9:  -154.14564676858456   -4.18942e-09   2.53172e-08 DIIS
   @DF-RHF iter  10:  -154.14564676884874   -2.64180e-10   4.81947e-09 DIIS
  Energy and wave function converged.


  ==> Post-Iterations <==

    Orbital Energies [Eh]
    ---------------------

    Doubly Occupied:                                                      

       1A    -20.555692     2A    -11.273759     3A    -11.210761  
       4A     -1.361532     5A     -1.014162     6A     -0.833212  
       7A     -0.703160     8A     -0.645620     9A     -0.573736  
      10A     -0.533595    11A     -0.524254    12A     -0.489166  
      13A     -0.440184  

    Virtual:                                                              

      14A      0.023055    15A      0.032197    16A      0.035759  
      17A      0.039175    18A      0.050167    19A      0.054250  
      20A      0.054708    21A      0.062269    22A      0.067574  
      23A      0.072333    24A      0.085419    25A      0.090114  
      26A      0.103196    27A      0.108116    28A      0.111436  
      29A      0.118707    30A      0.121773    31A      0.125933  
      32A      0.128594    33A      0.137676    34A      0.139951  
      35A      0.146332    36A      0.158064    37A      0.164677  
      38A      0.167775    39A      0.171915    40A      0.176478  
      41A      0.187652    42A      0.191848    43A      0.201242  
      44A      0.208545    45A      0.213583    46A      0.221995  
      47A      0.240375    48A      0.244422    49A      0.255731  
      50A      0.267188    51A      0.269360    52A      0.278002  
      53A      0.282058    54A      0.284195    55A      0.291657  
      56A      0.298462    57A      0.304566    58A      0.308969  
      59A      0.315309    60A      0.318984    61A      0.320529  
      62A      0.328485    63A      0.331465    64A      0.337971  
      65A      0.344298    66A      0.352137    67A      0.355780  
      68A      0.367647    69A      0.369726    70A      0.375583  
      71A      0.385230    72A      0.389129    73A      0.395146  
      74A      0.402060    75A      0.404969    76A      0.413789  
      77A      0.419710    78A      0.422280    79A      0.428486  
      80A      0.430475    81A      0.439245    82A      0.442985  
      83A      0.450755    84A      0.458096    85A      0.462543  
      86A      0.470760    87A      0.475831    88A      0.477686  
      89A      0.483548    90A      0.494619    91A      0.495450  
      92A      0.503038    93A      0.510094    94A      0.515981  
      95A      0.518444    96A      0.526303    97A      0.531234  
      98A      0.540697    99A      0.544101   100A      0.550186  
     101A      0.557278   102A      0.560679   103A      0.562845  
     104A      0.579201   105A      0.584358   106A      0.598929  
     107A      0.600988   108A      0.609576   109A      0.613657  
     110A      0.622720   111A      0.624760   112A      0.631797  
     113A      0.642019   114A      0.646434   115A      0.656656  
     116A      0.662506   117A      0.664478   118A      0.680629  
     119A      0.688460   120A      0.700026   121A      0.714332  
     122A      0.721293   123A      0.740526   124A      0.740662  
     125A      0.749207   126A      0.776205   127A      0.785790  
     128A      0.787008   129A      0.808543   130A      0.822530  
     131A      0.825184   132A      0.830984   133A      0.843829  
     134A      0.850959   135A      0.857980   136A      0.871518  
     137A      0.874601   138A      0.885191   139A      0.891574  
     140A      0.899250   141A      0.915410   142A      0.921470  
     143A      0.925353   144A      0.928180   145A      0.930457  
     146A      0.941641   147A      0.957077   148A      0.960597  
     149A      0.972534   150A      0.978456   151A      0.985062  
     152A      0.996575   153A      1.006539   154A      1.014989  
     155A      1.018098   156A      1.026350   157A      1.031468  
     158A      1.041455   159A      1.044304   160A      1.054430  
     161A      1.065250   162A      1.067309   163A      1.074849  
     164A      1.081673   165A      1.086609   166A      1.093294  
     167A      1.100011   168A      1.104958   169A      1.107432  
     170A      1.110795   171A      1.115911   172A      1.126729  
     173A      1.131946   174A      1.141031   175A      1.147580  
     176A      1.150023   177A      1.153371   178A      1.164083  
     179A      1.172918   180A      1.187201   181A      1.189803  
     182A      1.193368   183A      1.200761   184A      1.212514  
     185A      1.221794   186A      1.230716   187A      1.234728  
     188A      1.244512   189A      1.252310   190A      1.254924  
     191A      1.259648   192A      1.266839   193A      1.274004  
     194A      1.290863   195A      1.293080   196A      1.309182  
     197A      1.317603   198A      1.318454   199A      1.322205  
     200A      1.336637   201A      1.345737   202A      1.346157  
     203A      1.353337   204A      1.359928   205A      1.387668  
     206A      1.393978   207A      1.399875   208A      1.413152  
     209A      1.420493   210A      1.427777   211A      1.444442  
     212A      1.456778   213A      1.461655   214A      1.464646  
     215A      1.469493   216A      1.481203   217A      1.496023  
     218A      1.496228   219A      1.507083   220A      1.519672  
     221A      1.529233   222A      1.536656   223A      1.552832  
     224A      1.564168   225A      1.571641   226A      1.585993  
     227A      1.594777   228A      1.600407   229A      1.609615  
     230A      1.629802   231A      1.639451   232A      1.654111  
     233A      1.665656   234A      1.672069   235A      1.675349  
     236A      1.683613   237A      1.697863   238A      1.704762  
     239A      1.725756   240A      1.728881   241A      1.734709  
     242A      1.751527   243A      1.759443   244A      1.773937  
     245A      1.786092   246A      1.793136   247A      1.796798  
     248A      1.815030   249A      1.824504   250A      1.832070  
     251A      1.843330   252A      1.848587   253A      1.867939  
     254A      1.880044   255A      1.886107   256A      1.906372  
     257A      1.913723   258A      1.933138   259A      1.940905  
     260A      1.950683   261A      1.956846   262A      1.976703  
     263A      1.982766   264A      2.001813   265A      2.008496  
     266A      2.019197   267A      2.042342   268A      2.054871  
     269A      2.060490   270A      2.072555   271A      2.078125  
     272A      2.086855   273A      2.096469   274A      2.113727  
     275A      2.126827   276A      2.138811   277A      2.148606  
     278A      2.152631   279A      2.157568   280A      2.186340  
     281A      2.189307   282A      2.217633   283A      2.225452  
     284A      2.235291   285A      2.242747   286A      2.265901  
     287A      2.273478   288A      2.282682   289A      2.304866  
     290A      2.308531   291A      2.320229   292A      2.352489  
     293A      2.356412   294A      2.387376   295A      2.402434  
     296A      2.420367   297A      2.443494   298A      2.459635  
     299A      2.463843   300A      2.474151   301A      2.505522  
     302A      2.511095   303A      2.542085   304A      2.555093  
     305A      2.579633   306A      2.600531   307A      2.641131  
     308A      2.648181   309A      2.663715   310A      2.692640  
     311A      2.716641   312A      2.728336   313A      2.736544  
     314A      2.750710   315A      2.754283   316A      2.790741  
     317A      2.806403   318A      2.841971   319A      2.855677  
     320A      2.873515   321A      2.889573   322A      2.893509  
     323A      2.927193   324A      2.941563   325A      2.969558  
     326A      2.971959   327A      3.003455   328A      3.013548  
     329A      3.058938   330A      3.069531   331A      3.103309  
     332A      3.120481   333A      3.179752   334A      3.184172  
     335A      3.225903   336A      3.256406   337A      3.316448  
     338A      3.327410   339A      3.335314   340A      3.355686  
     341A      3.420468   342A      3.466935   343A      3.486141  
     344A      3.495913   345A      3.509615   346A      3.518560  
     347A      3.531388   348A      3.611773   349A      3.625892  
     350A      3.646027   351A      3.665486   352A      3.680523  
     353A      3.707302   354A      3.732077   355A      3.750548  
     356A      3.775594   357A      3.792367   358A      3.821943  
     359A      3.823368   360A      3.825374   361A      3.856394  
     362A      3.883430   363A      3.918465   364A      3.967062  
     365A      3.983118   366A      4.004216   367A      4.032201  
     368A      4.040005   369A      4.070651   370A      4.097629  
     371A      4.104159   372A      4.111359   373A      4.124035  
     374A      4.149575   375A      4.157845   376A      4.167106  
     377A      4.189269   378A      4.202318   379A      4.205002  
     380A      4.219052   381A      4.237107   382A      4.253864  
     383A      4.259983   384A      4.289241   385A      4.300986  
     386A      4.326941   387A      4.339194   388A      4.353111  
     389A      4.373227   390A      4.389663   391A      4.409282  
     392A      4.425015   393A      4.467088   394A      4.484741  
     395A      4.491906   396A      4.500532   397A      4.507212  
     398A      4.535931   399A      4.545876   400A      4.558884  
     401A      4.583598   402A      4.595996   403A      4.606106  
     404A      4.622110   405A      4.635806   406A      4.640045  
     407A      4.665396   408A      4.677577   409A      4.694606  
     410A      4.701561   411A      4.706745   412A      4.720039  
     413A      4.755864   414A      4.780419   415A      4.793636  
     416A      4.807892   417A      4.840499   418A      4.855712  
     419A      4.872856   420A      4.881130   421A      4.905057  
     422A      4.919900   423A      4.932845   424A      4.945265  
     425A      4.950223   426A      4.971796   427A      4.990113  
     428A      5.004435   429A      5.036148   430A      5.045556  
     431A      5.055467   432A      5.062461   433A      5.081259  
     434A      5.092952   435A      5.108661   436A      5.139176  
     437A      5.143621   438A      5.174045   439A      5.182072  
     440A      5.214382   441A      5.244669   442A      5.255790  
     443A      5.261281   444A      5.269108   445A      5.320831  
     446A      5.323748   447A      5.349380   448A      5.363823  
     449A      5.372250   450A      5.380570   451A      5.388214  
     452A      5.407391   453A      5.429479   454A      5.459208  
     455A      5.478357   456A      5.505123   457A      5.517156  
     458A      5.541972   459A      5.560483   460A      5.570560  
     461A      5.575037   462A      5.602179   463A      5.614300  
     464A      5.646158   465A      5.653887   466A      5.691606  
     467A      5.708019   468A      5.721343   469A      5.737695  
     470A      5.755508   471A      5.776244   472A      5.785957  
     473A      5.802832   474A      5.828262   475A      5.847600  
     476A      5.861605   477A      5.900497   478A      5.954150  
     479A      6.014351   480A      6.033358   481A      6.066760  
     482A      6.089209   483A      6.134117   484A      6.140564  
     485A      6.182629   486A      6.194276   487A      6.218965  
     488A      6.251761   489A      6.301823   490A      6.304170  
     491A      6.340562   492A      6.397296   493A      6.426644  
     494A      6.455048   495A      6.507485   496A      6.721005  
     497A      6.760896   498A      6.785676   499A      6.827625  
     500A      6.852371   501A      6.885837   502A      6.979833  
     503A      7.001299   504A      7.028444   505A      7.043969  
     506A      7.109034   507A      7.123701   508A      7.170670  
     509A      7.259457   510A      7.358736   511A      7.364265  
     512A      7.395980   513A      7.545014   514A      7.560169  
     515A      7.626881   516A      7.771700   517A      7.806237  
     518A      7.844365   519A      7.856199   520A      7.875607  
     521A      7.881231   522A      7.933505   523A      7.990103  
     524A      8.023286   525A      8.113550   526A      8.157641  
     527A      8.287262   528A      8.303650   529A      8.318032  
     530A      8.367368   531A      8.426675   532A      8.582220  
     533A      8.652914   534A      8.885475   535A      9.017021  
     536A      9.990614   537A     10.042956   538A     10.259670  
     539A     10.378849   540A     10.726124   541A     10.755486  
     542A     11.045687   543A     12.009354   544A     12.296304  
     545A     13.281275   546A     14.089867   547A     16.171681  
     548A     18.145724   549A     18.697600   550A     53.275652  
     551A     54.972141   552A     66.266665  

    Final Occupation by Irrep:
              A 
    DOCC [    13 ]
    NA   [    13 ]
    NB   [    13 ]

  @DF-RHF Final Energy:  -154.14564676884874

   => Energetics <=

    Nuclear Repulsion Energy =             82.2537529662162541
    One-Electron Energy =                -372.4811327667052865
    Two-Electron Energy =                 136.0817330316402831
    Total Energy =                       -154.1456467688487351

Computation Completed


Properties will be evaluated at   0.000000,   0.000000,   0.000000 [a0]

Properties computed using the SCF density matrix


 Multipole Moments:

 ------------------------------------------------------------------------------------
     Multipole            Electronic (a.u.)      Nuclear  (a.u.)        Total (a.u.)
 ------------------------------------------------------------------------------------

 L = 1.  Multiply by 2.5417464519 to convert [e a0] to [Debye]
 Dipole X            :       -105.9958932          106.3108121            0.3149188
 Dipole Y            :         -6.1646966            6.0695565           -0.0951400
 Dipole Z            :          2.4665710           -1.8962060            0.5703650
 Magnitude           :                                                    0.6584389

 ------------------------------------------------------------------------------------

*** tstop() called on Moses-MBP.lan at Thu Feb 27 17:52:11 2025
Module time:
	user time   =      71.44 seconds =       1.19 minutes
	system time =       6.19 seconds =       0.10 minutes
	total time  =          9 seconds =       0.15 minutes
Total time:
	user time   =      71.44 seconds =       1.19 minutes
	system time =       6.19 seconds =       0.10 minutes
	total time  =          9 seconds =       0.15 minutes

*** tstart() called on Moses-MBP.lan
*** at Thu Feb 27 17:52:11 2025


  //>>>>>>>>>>>>>>>>>>>>>>>>>>>>>>>>>>>//
  //               DFMP2               //
  //<<<<<<<<<<<<<<<<<<<<<<<<<<<<<<<<<<<//

   => Loading Basis Set <=

    Name: (AUG-CC-PVTZ AUX)
    Role: RIFIT
    Keyword: DF_BASIS_MP2
    atoms 1-2, 10-11 entry C          line   148 file /Users/moseschung/miniconda3/envs/psi4/share/psi4/basis/aug-cc-pvtz-ri.gbs 
    atoms 3, 12      entry O          line   264 file /Users/moseschung/miniconda3/envs/psi4/share/psi4/basis/aug-cc-pvtz-ri.gbs 
    atoms 4-9, 13-18 entry H          line    30 file /Users/moseschung/miniconda3/envs/psi4/share/psi4/basis/aug-cc-pvtz-ri.gbs 

	 --------------------------------------------------------
	                          DF-MP2                         
	      2nd-Order Density-Fitted Moller-Plesset Theory     
	              RMP2 Wavefunction,  10 Threads             
	                                                         
	        Rob Parrish, Justin Turney, Andy Simmonett,      
	           Ed Hohenstein, and C. David Sherrill          
	 --------------------------------------------------------

   => Auxiliary Basis Set <=

  Basis Set: (AUG-CC-PVTZ AUX)
    Blend: AUG-CC-PVTZ-RI
    Number of shells: 336
    Number of basis functions: 1188
    Number of Cartesian functions: 1476
    Spherical Harmonics?: true
    Max angular momentum: 4

	 --------------------------------------------------------
	                 NBF =   552, NAUX =  1188
	 --------------------------------------------------------
	   CLASS    FOCC     OCC    AOCC    AVIR     VIR    FVIR
	   PAIRS       0      13      13     539     539       0
	 --------------------------------------------------------

	-----------------------------------------------------------
	 ==================> DF-MP2 Energies <==================== 
	-----------------------------------------------------------
	 Reference Energy          =    -154.1456467688487351 [Eh]
	 Singles Energy            =      -0.0000000000000000 [Eh]
	 Same-Spin Energy          =      -0.1481416259670752 [Eh]
	 Opposite-Spin Energy      =      -0.5183640946429084 [Eh]
	 Correlation Energy        =      -0.6665057206099836 [Eh]
	 Total Energy              =    -154.8121524894587253 [Eh]
	-----------------------------------------------------------
	 ================> DF-SCS-MP2 Energies <================== 
	-----------------------------------------------------------
	 SCS Same-Spin Scale       =       0.3333333333333333 [-]
	 SCS Opposite-Spin Scale   =       1.2000000000000000 [-]
	 SCS Same-Spin Energy      =      -0.0493805419890251 [Eh]
	 SCS Opposite-Spin Energy  =      -0.6220369135714902 [Eh]
	 SCS Correlation Energy    =      -0.6714174555605152 [Eh]
	 SCS Total Energy          =    -154.8170642244092505 [Eh]
	-----------------------------------------------------------


*** tstop() called on Moses-MBP.lan at Thu Feb 27 17:52:14 2025
Module time:
	user time   =      20.52 seconds =       0.34 minutes
	system time =       1.83 seconds =       0.03 minutes
	total time  =          3 seconds =       0.05 minutes
Total time:
	user time   =      91.97 seconds =       1.53 minutes
	system time =       8.02 seconds =       0.13 minutes
	total time  =         12 seconds =       0.20 minutes

    Psi4 stopped on: Thursday, 27 February 2025 05:52PM
    Psi4 wall time for execution: 0:00:12.85


    -----------------------------------------------------------------------
          Psi4: An Open-Source Ab Initio Electronic Structure Package
                               Psi4 1.9.1 release

                         Git: Rev {} zzzzzzz 


    D. G. A. Smith, L. A. Burns, A. C. Simmonett, R. M. Parrish,
    M. C. Schieber, R. Galvelis, P. Kraus, H. Kruse, R. Di Remigio,
    A. Alenaizan, A. M. James, S. Lehtola, J. P. Misiewicz, M. Scheurer,
    R. A. Shaw, J. B. Schriber, Y. Xie, Z. L. Glick, D. A. Sirianni,
    J. S. O'Brien, J. M. Waldrop, A. Kumar, E. G. Hohenstein,
    B. P. Pritchard, B. R. Brooks, H. F. Schaefer III, A. Yu. Sokolov,
    K. Patkowski, A. E. DePrince III, U. Bozkaya, R. A. King,
    F. A. Evangelista, J. M. Turney, T. D. Crawford, C. D. Sherrill,
    J. Chem. Phys. 152(18) 184108 (2020). https://doi.org/10.1063/5.0006002

                            Additional Code Authors
    E. T. Seidl, C. L. Janssen, E. F. Valeev, M. L. Leininger,
    J. F. Gonthier, R. M. Richard, H. R. McAlexander, M. Saitow, X. Wang,
    P. Verma, M. H. Lechner, A. Jiang, S. Behnle, A. G. Heide,
    M. F. Herbst, and D. L. Poole

             Previous Authors, Complete List of Code Contributors,
                       and Citations for Specific Modules
    https://github.com/psi4/psi4/blob/master/codemeta.json
    https://github.com/psi4/psi4/graphs/contributors
    http://psicode.org/psi4manual/master/introduction.html#citing-psifour

    -----------------------------------------------------------------------


    Psi4 started on: Thursday, 27 February 2025 05:52PM

    Process ID: 32325
    Host:       Moses-MBP.lan
    PSIDATADIR: /Users/moseschung/miniconda3/envs/psi4/share/psi4
    Memory:     9.3 GiB
    Threads:    10
    
  ==> Input QCSchema <==

--------------------------------------------------------------------------
{'driver': 'energy',
 'extras': {'psiapi': True, 'wfn_qcvars_only': True},
 'id': None,
 'keywords': {'SCF_TYPE': 'DF', 'function_kwargs': {}},
 'model': {'basis': 'aug-cc-pvtz', 'method': 'mp2'},
 'molecule': {'atom_labels': ['', '', '', '', '', '', '', '', '', '', '', '', '', '', '', '', '', ''],
              'atomic_numbers': [6, 6, 8, 1, 1, 1, 1, 1, 1, 6, 6, 8, 1, 1, 1, 1, 1, 1],
              'extras': {},
              'fix_com': True,
              'fix_orientation': True,
              'fix_symmetry': 'c1',
              'fragment_charges': [0.0, 0.0],
              'fragment_multiplicities': [1, 1],
              'fragments': [[0, 1, 2, 3, 4, 5, 6, 7, 8], [9, 10, 11, 12, 13, 14, 15, 16, 17]],
              'geometry': [-2.2549667218079406, -1.3354959090268035, 0.9472800224433747, -3.9231526946738455,
                           -0.021935940864314468, -0.9522972453064652, -6.177136758896549, 0.9051996010816797,
                           0.12352950709505277, -7.044063736759331, -0.48407224429727724, 0.9059895066021211,
                           -0.47653601650895144, -1.9386473553936803, 0.0837999050334274, -3.194249423288378,
                           -3.0101825397642834, 1.7166309918181422, -1.8265847064279057, -0.07000301459145979,
                           2.522584066516902, -4.326677252599608, -1.2893620251260016, -2.548983540489548,
                           -2.956892263026373, 1.6257030398394876, -1.741941983542524, 3.60914446331102,
                           2.507290512983572, -0.1284881484482541, 4.543115144652796, 0.004900059843312148,
                           0.8327286041703721, 4.053231992519735, -1.829776453853804, -1.0425600136889583,
                           4.719857449714615, -3.425551901044416, -0.5000253122483922, 3.950958124883832,
                           3.999852898653928, 1.2520115882563276, 1.5815892731668002, 2.4232638408150895,
                           -0.5055338639041018, 4.565060534147737, 3.0068755190447325, -1.8863095006230004,
                           3.578812469271297, -0.4803740502697563, 2.6097816991239027, 6.57512063982247,
                           0.11055842696991024, 1.2489067682322004],
              'mass_numbers': [12, 12, 16, 1, 1, 1, 1, 1, 1, 12, 12, 16, 1, 1, 1, 1, 1, 1],
              'masses': [12.0, 12.0, 15.99491461957, 1.00782503223, 1.00782503223, 1.00782503223, 1.00782503223,
                         1.00782503223, 1.00782503223, 12.0, 12.0, 15.99491461957, 1.00782503223, 1.00782503223,
                         1.00782503223, 1.00782503223, 1.00782503223, 1.00782503223],
              'molecular_charge': 0.0,
              'molecular_multiplicity': 1,
              'name': 'dimer',
              'provenance': {'creator': 'QCElemental',
                             'routine': 'qcelemental.molparse.from_string',
                             'version': '0.29.0'},
              'real': [True, True, True, True, True, True, True, True, True, False, False, False, False, False, False,
                       False, False, False],
              'schema_name': 'qcschema_molecule',
              'schema_version': 2,
              'symbols': ['C', 'C', 'O', 'H', 'H', 'H', 'H', 'H', 'H', 'C', 'C', 'O', 'H', 'H', 'H', 'H', 'H', 'H'],
              'validated': True},
 'protocols': {'stdout': True},
 'provenance': {'creator': 'QCElemental', 'routine': 'qcelemental.models.results', 'version': '0.29.0'},
 'schema_name': 'qcschema_input',
 'schema_version': 1}
--------------------------------------------------------------------------

Scratch directory: /tmp/
   => Libint2 <=

    Primary   basis highest AM E, G, H:  6, 6, 3
    Auxiliary basis highest AM E, G, H:  7, 7, 4
    Onebody   basis highest AM E, G, H:  -, -, -
    Solid Harmonics ordering:            Gaussian

*** tstart() called on Moses-MBP.lan
*** at Thu Feb 27 17:52:14 2025

   => Loading Basis Set <=

    Name: AUG-CC-PVTZ
    Role: ORBITAL
    Keyword: BASIS
    atoms 1-2, 10-11 entry C          line   239 file /Users/moseschung/miniconda3/envs/psi4/share/psi4/basis/aug-cc-pvtz.gbs 
    atoms 3, 12      entry O          line   331 file /Users/moseschung/miniconda3/envs/psi4/share/psi4/basis/aug-cc-pvtz.gbs 
    atoms 4-9, 13-18 entry H          line    40 file /Users/moseschung/miniconda3/envs/psi4/share/psi4/basis/aug-cc-pvtz.gbs 


         ---------------------------------------------------------
                                   SCF
               by Justin Turney, Rob Parrish, Andy Simmonett
                          and Daniel G. A. Smith
                              RHF Reference
                       10 Threads,   9536 MiB Core
         ---------------------------------------------------------

  ==> Geometry <==

    Molecular point group: c1
    Full point group: C1

    Geometry (in Bohr), charge = 0, multiplicity = 1:

       Center              X                  Y                   Z               Mass       
    ------------   -----------------  -----------------  -----------------  -----------------
         C           -2.254966721808    -1.335495909027     0.947280022443    12.000000000000
         C           -3.923152694674    -0.021935940864    -0.952297245306    12.000000000000
         O           -6.177136758897     0.905199601082     0.123529507095    15.994914619570
         H           -7.044063736759    -0.484072244297     0.905989506602     1.007825032230
         H           -0.476536016509    -1.938647355394     0.083799905033     1.007825032230
         H           -3.194249423288    -3.010182539764     1.716630991818     1.007825032230
         H           -1.826584706428    -0.070003014591     2.522584066517     1.007825032230
         H           -4.326677252600    -1.289362025126    -2.548983540490     1.007825032230
         H           -2.956892263026     1.625703039839    -1.741941983543     1.007825032230
      Gh(C)           3.609144463311     2.507290512984    -0.128488148448    12.000000000000
      Gh(C)           4.543115144653     0.004900059843     0.832728604170    12.000000000000
      Gh(O)           4.053231992520    -1.829776453854    -1.042560013689    15.994914619570
      Gh(H)           4.719857449715    -3.425551901044    -0.500025312248     1.007825032230
      Gh(H)           3.950958124884     3.999852898654     1.252011588256     1.007825032230
      Gh(H)           1.581589273167     2.423263840815    -0.505533863904     1.007825032230
      Gh(H)           4.565060534148     3.006875519045    -1.886309500623     1.007825032230
      Gh(H)           3.578812469271    -0.480374050270     2.609781699124     1.007825032230
      Gh(H)           6.575120639822     0.110558426970     1.248906768232     1.007825032230

  Running in c1 symmetry.

  Rotational constants: A =      0.19720  B =      0.03318  C =      0.03076 [cm^-1]
  Rotational constants: A =   5911.89459  B =    994.56445  C =    922.13407 [MHz]
  Nuclear repulsion =   82.141401862445136

  Charge       = 0
  Multiplicity = 1
  Electrons    = 26
  Nalpha       = 13
  Nbeta        = 13

  ==> Algorithm <==

  SCF Algorithm Type is DF.
  DIIS enabled.
  MOM disabled.
  Fractional occupation disabled.
  Guess Type is SAD.
  Energy threshold   = 1.00e-08
  Density threshold  = 1.00e-08
  Integral threshold = 1.00e-12

  ==> Primary Basis <==

  Basis Set: AUG-CC-PVTZ
    Blend: AUG-CC-PVTZ
    Number of shells: 192
    Number of basis functions: 552
    Number of Cartesian functions: 630
    Spherical Harmonics?: true
    Max angular momentum: 3

   => Loading Basis Set <=

    Name: (AUG-CC-PVTZ AUX)
    Role: JKFIT
    Keyword: DF_BASIS_SCF
    atoms 1-2, 10-11 entry C          line   162 file /Users/moseschung/miniconda3/envs/psi4/share/psi4/basis/aug-cc-pvtz-jkfit.gbs 
    atoms 3, 12      entry O          line   286 file /Users/moseschung/miniconda3/envs/psi4/share/psi4/basis/aug-cc-pvtz-jkfit.gbs 
    atoms 4-9, 13-18 entry H          line    70 file /Users/moseschung/miniconda3/envs/psi4/share/psi4/basis/aug-cc-pvtz-jkfit.gbs 

  ==> Integral Setup <==

  DFHelper Memory: AOs need 2.569 GiB; user supplied 6.985 GiB. 
  Using in-core AOs.

  ==> MemDFJK: Density-Fitted J/K Matrices <==

    J tasked:                   Yes
    K tasked:                   Yes
    wK tasked:                   No
    OpenMP threads:              10
    Memory [MiB]:              7152
    Algorithm:                 Core
    Schwarz Cutoff:           1E-12
    Mask sparsity (%):       7.2976
    Fitting Condition:        1E-10

   => Auxiliary Basis Set <=

  Basis Set: (AUG-CC-PVTZ AUX)
    Blend: AUG-CC-PVTZ-JKFIT
    Number of shells: 348
    Number of basis functions: 1176
    Number of Cartesian functions: 1446
    Spherical Harmonics?: true
    Max angular momentum: 4

  Minimum eigenvalue in the overlap matrix is 7.4683265903E-06.
  Reciprocal condition number of the overlap matrix is 4.0398040824E-07.
    Using symmetric orthogonalization.

  ==> Pre-Iterations <==

  SCF Guess: Superposition of Atomic Densities via on-the-fly atomic UHF (no occupation information).

   -------------------------
    Irrep   Nso     Nmo    
   -------------------------
     A        552     552 
   -------------------------
    Total     552     552
   -------------------------

  ==> Iterations <==

                           Total Energy        Delta E     RMS |[F,P]|

   @DF-RHF iter SAD:  -153.45649011371125   -1.53456e+02   0.00000e+00 
   @DF-RHF iter   1:  -154.00367910607150   -5.47189e-01   9.36575e-04 ADIIS/DIIS
   @DF-RHF iter   2:  -154.11541813338712   -1.11739e-01   4.94429e-04 ADIIS/DIIS
   @DF-RHF iter   3:  -154.14326952680165   -2.78514e-02   8.37226e-05 DIIS
   @DF-RHF iter   4:  -154.14484464041459   -1.57511e-03   3.20338e-05 DIIS
   @DF-RHF iter   5:  -154.14503002719039   -1.85387e-04   6.21749e-06 DIIS
   @DF-RHF iter   6:  -154.14504031370538   -1.02865e-05   1.42461e-06 DIIS
   @DF-RHF iter   7:  -154.14504104828455   -7.34579e-07   4.05234e-07 DIIS
   @DF-RHF iter   8:  -154.14504110310247   -5.48179e-08   1.28126e-07 DIIS
   @DF-RHF iter   9:  -154.14504110923352   -6.13105e-09   3.28610e-08 DIIS
   @DF-RHF iter  10:  -154.14504110966274   -4.29225e-10   6.29729e-09 DIIS
  Energy and wave function converged.


  ==> Post-Iterations <==

    Orbital Energies [Eh]
    ---------------------

    Doubly Occupied:                                                      

       1A    -20.555814     2A    -11.273346     3A    -11.218901  
       4A     -1.362512     5A     -1.014562     6A     -0.848228  
       7A     -0.687140     8A     -0.626070     9A     -0.612270  
      10A     -0.543586    11A     -0.526993    12A     -0.481034  
      13A     -0.442830  

    Virtual:                                                              

      14A      0.020439    15A      0.031103    16A      0.035869  
      17A      0.037037    18A      0.049787    19A      0.051718  
      20A      0.056287    21A      0.063242    22A      0.068154  
      23A      0.075424    24A      0.077569    25A      0.087963  
      26A      0.100909    27A      0.104002    28A      0.111046  
      29A      0.114493    30A      0.121834    31A      0.127811  
      32A      0.131275    33A      0.136153    34A      0.142561  
      35A      0.147485    36A      0.149074    37A      0.157735  
      38A      0.164698    39A      0.173824    40A      0.180837  
      41A      0.183071    42A      0.190125    43A      0.198305  
      44A      0.206578    45A      0.207572    46A      0.221867  
      47A      0.233690    48A      0.241811    49A      0.256464  
      50A      0.258544    51A      0.262334    52A      0.274180  
      53A      0.277827    54A      0.278576    55A      0.291311  
      56A      0.292887    57A      0.303680    58A      0.311285  
      59A      0.317759    60A      0.321298    61A      0.324567  
      62A      0.328422    63A      0.337414    64A      0.342043  
      65A      0.345963    66A      0.353947    67A      0.360483  
      68A      0.362391    69A      0.367308    70A      0.368812  
      71A      0.375140    72A      0.383798    73A      0.387492  
      74A      0.399601    75A      0.401536    76A      0.404079  
      77A      0.407888    78A      0.412439    79A      0.421802  
      80A      0.427441    81A      0.430983    82A      0.440053  
      83A      0.446737    84A      0.450559    85A      0.461896  
      86A      0.463543    87A      0.465184    88A      0.468122  
      89A      0.479766    90A      0.484772    91A      0.489602  
      92A      0.496659    93A      0.505676    94A      0.511734  
      95A      0.513543    96A      0.527010    97A      0.529398  
      98A      0.534728    99A      0.540860   100A      0.545821  
     101A      0.554200   102A      0.560929   103A      0.570261  
     104A      0.587230   105A      0.589542   106A      0.592304  
     107A      0.600671   108A      0.606294   109A      0.615933  
     110A      0.625091   111A      0.626957   112A      0.638589  
     113A      0.642165   114A      0.648399   115A      0.655756  
     116A      0.669143   117A      0.675289   118A      0.678922  
     119A      0.689458   120A      0.697502   121A      0.710924  
     122A      0.716235   123A      0.720588   124A      0.734564  
     125A      0.746925   126A      0.762403   127A      0.765167  
     128A      0.770812   129A      0.794015   130A      0.796937  
     131A      0.803759   132A      0.822767   133A      0.839625  
     134A      0.849785   135A      0.852031   136A      0.856514  
     137A      0.873797   138A      0.886563   139A      0.889691  
     140A      0.900898   141A      0.906914   142A      0.911014  
     143A      0.917118   144A      0.924772   145A      0.930828  
     146A      0.942726   147A      0.950863   148A      0.954783  
     149A      0.962258   150A      0.974985   151A      0.979172  
     152A      0.993842   153A      1.001586   154A      1.010185  
     155A      1.016240   156A      1.021916   157A      1.025515  
     158A      1.036903   159A      1.044220   160A      1.049605  
     161A      1.060086   162A      1.063877   163A      1.069889  
     164A      1.075767   165A      1.082007   166A      1.090047  
     167A      1.094912   168A      1.100194   169A      1.105110  
     170A      1.110045   171A      1.122502   172A      1.124460  
     173A      1.131072   174A      1.133480   175A      1.145898  
     176A      1.148780   177A      1.160773   178A      1.162114  
     179A      1.172982   180A      1.176442   181A      1.190232  
     182A      1.197166   183A      1.199749   184A      1.208070  
     185A      1.214062   186A      1.219278   187A      1.232525  
     188A      1.240981   189A      1.243361   190A      1.254921  
     191A      1.260971   192A      1.269911   193A      1.277591  
     194A      1.288653   195A      1.289437   196A      1.298769  
     197A      1.305816   198A      1.322309   199A      1.322968  
     200A      1.335875   201A      1.347228   202A      1.357445  
     203A      1.362658   204A      1.373029   205A      1.377855  
     206A      1.384904   207A      1.399900   208A      1.402377  
     209A      1.411814   210A      1.413014   211A      1.438116  
     212A      1.446723   213A      1.455433   214A      1.460019  
     215A      1.463184   216A      1.469361   217A      1.483223  
     218A      1.495865   219A      1.506915   220A      1.510708  
     221A      1.518651   222A      1.524619   223A      1.535659  
     224A      1.558055   225A      1.570326   226A      1.578769  
     227A      1.593538   228A      1.597927   229A      1.605802  
     230A      1.616660   231A      1.633323   232A      1.634147  
     233A      1.644699   234A      1.653706   235A      1.661374  
     236A      1.682789   237A      1.688145   238A      1.696309  
     239A      1.714989   240A      1.722874   241A      1.734028  
     242A      1.752514   243A      1.759923   244A      1.762140  
     245A      1.779069   246A      1.786929   247A      1.789856  
     248A      1.802208   249A      1.818387   250A      1.831999  
     251A      1.841385   252A      1.857180   253A      1.864261  
     254A      1.870076   255A      1.878245   256A      1.891480  
     257A      1.908502   258A      1.915968   259A      1.933599  
     260A      1.939771   261A      1.959965   262A      1.964084  
     263A      1.970507   264A      1.976760   265A      2.004533  
     266A      2.010070   267A      2.026718   268A      2.032864  
     269A      2.041591   270A      2.062011   271A      2.072852  
     272A      2.090263   273A      2.097831   274A      2.100712  
     275A      2.114143   276A      2.117929   277A      2.143189  
     278A      2.154524   279A      2.174398   280A      2.188898  
     281A      2.191911   282A      2.214529   283A      2.216353  
     284A      2.231050   285A      2.246577   286A      2.265912  
     287A      2.269175   288A      2.277009   289A      2.294315  
     290A      2.308869   291A      2.328164   292A      2.340578  
     293A      2.346911   294A      2.359927   295A      2.385750  
     296A      2.406575   297A      2.427247   298A      2.443659  
     299A      2.445973   300A      2.477318   301A      2.493363  
     302A      2.500954   303A      2.519210   304A      2.564971  
     305A      2.581779   306A      2.592099   307A      2.597215  
     308A      2.619202   309A      2.669128   310A      2.695034  
     311A      2.703667   312A      2.714021   313A      2.727485  
     314A      2.740118   315A      2.753492   316A      2.774005  
     317A      2.795303   318A      2.815254   319A      2.824072  
     320A      2.856138   321A      2.881758   322A      2.888702  
     323A      2.904457   324A      2.944034   325A      2.953317  
     326A      2.981267   327A      3.025106   328A      3.043349  
     329A      3.059928   330A      3.101715   331A      3.117251  
     332A      3.134520   333A      3.164017   334A      3.190111  
     335A      3.211079   336A      3.254459   337A      3.310864  
     338A      3.331187   339A      3.360658   340A      3.369709  
     341A      3.424919   342A      3.451167   343A      3.479385  
     344A      3.510417   345A      3.531324   346A      3.558292  
     347A      3.579926   348A      3.585695   349A      3.623461  
     350A      3.654088   351A      3.677419   352A      3.684907  
     353A      3.693325   354A      3.706351   355A      3.768661  
     356A      3.779618   357A      3.797817   358A      3.807445  
     359A      3.839041   360A      3.853477   361A      3.890555  
     362A      3.899689   363A      3.927220   364A      3.952100  
     365A      3.968468   366A      3.982331   367A      4.010943  
     368A      4.025201   369A      4.039387   370A      4.064331  
     371A      4.106547   372A      4.119127   373A      4.123048  
     374A      4.147588   375A      4.156862   376A      4.172680  
     377A      4.174284   378A      4.191102   379A      4.214455  
     380A      4.225954   381A      4.233192   382A      4.246295  
     383A      4.255085   384A      4.277855   385A      4.292320  
     386A      4.308059   387A      4.314494   388A      4.340022  
     389A      4.353468   390A      4.373509   391A      4.383953  
     392A      4.430216   393A      4.440572   394A      4.457222  
     395A      4.484634   396A      4.489230   397A      4.518804  
     398A      4.524880   399A      4.552305   400A      4.568163  
     401A      4.572606   402A      4.591933   403A      4.599207  
     404A      4.616809   405A      4.641299   406A      4.656562  
     407A      4.666081   408A      4.680011   409A      4.696313  
     410A      4.703596   411A      4.712690   412A      4.731773  
     413A      4.753726   414A      4.761782   415A      4.775237  
     416A      4.801015   417A      4.812038   418A      4.830798  
     419A      4.853382   420A      4.878860   421A      4.897835  
     422A      4.909205   423A      4.913632   424A      4.933141  
     425A      4.949182   426A      4.962796   427A      4.964123  
     428A      4.977579   429A      4.987971   430A      5.015948  
     431A      5.026119   432A      5.038998   433A      5.056722  
     434A      5.071149   435A      5.086535   436A      5.108659  
     437A      5.126042   438A      5.147500   439A      5.179531  
     440A      5.183937   441A      5.200094   442A      5.220557  
     443A      5.236670   444A      5.261342   445A      5.265649  
     446A      5.331206   447A      5.346549   448A      5.357632  
     449A      5.368297   450A      5.385081   451A      5.429059  
     452A      5.431455   453A      5.438379   454A      5.458452  
     455A      5.485718   456A      5.494321   457A      5.521466  
     458A      5.527667   459A      5.559932   460A      5.564392  
     461A      5.573390   462A      5.584506   463A      5.605035  
     464A      5.632618   465A      5.643910   466A      5.682691  
     467A      5.692851   468A      5.700957   469A      5.718055  
     470A      5.744561   471A      5.750293   472A      5.776591  
     473A      5.806094   474A      5.818983   475A      5.870711  
     476A      5.907983   477A      5.956521   478A      5.986174  
     479A      6.010374   480A      6.024075   481A      6.058370  
     482A      6.100869   483A      6.134739   484A      6.137504  
     485A      6.195956   486A      6.216495   487A      6.234375  
     488A      6.242996   489A      6.265893   490A      6.287282  
     491A      6.309111   492A      6.346806   493A      6.412144  
     494A      6.467404   495A      6.564482   496A      6.691229  
     497A      6.732151   498A      6.817846   499A      6.839373  
     500A      6.873146   501A      6.904691   502A      6.916540  
     503A      6.956863   504A      6.979443   505A      7.013361  
     506A      7.125831   507A      7.133672   508A      7.155052  
     509A      7.211042   510A      7.321857   511A      7.354065  
     512A      7.388778   513A      7.467644   514A      7.535323  
     515A      7.645633   516A      7.780210   517A      7.830386  
     518A      7.846394   519A      7.856702   520A      7.876460  
     521A      7.892543   522A      7.906458   523A      7.927142  
     524A      7.988365   525A      8.163657   526A      8.174090  
     527A      8.214740   528A      8.237572   529A      8.308919  
     530A      8.369204   531A      8.421560   532A      8.590872  
     533A      8.599803   534A      8.888520   535A      9.060237  
     536A      9.980886   537A     10.134648   538A     10.372516  
     539A     10.398256   540A     10.449219   541A     10.808466  
     542A     11.080488   543A     12.047410   544A     12.401308  
     545A     13.296955   546A     14.137159   547A     16.214485  
     548A     17.965655   549A     18.863282   550A     53.278877  
     551A     54.722827   552A     66.486900  

    Final Occupation by Irrep:
              A 
    DOCC [    13 ]
    NA   [    13 ]
    NB   [    13 ]

  @DF-RHF Final Energy:  -154.14504110966274

   => Energetics <=

    Nuclear Repulsion Energy =             82.1414018624451359
    One-Electron Energy =                -372.1863129015496270
    Two-Electron Energy =                 135.8998699294417349
    Total Energy =                       -154.1450411096627420

Computation Completed


Properties will be evaluated at   0.000000,   0.000000,   0.000000 [a0]

Properties computed using the SCF density matrix


 Multipole Moments:

 ------------------------------------------------------------------------------------
     Multipole            Electronic (a.u.)      Nuclear  (a.u.)        Total (a.u.)
 ------------------------------------------------------------------------------------

 L = 1.  Multiply by 2.5417464519 to convert [e a0] to [Debye]
 Dipole X            :        106.5828014         -106.3108140            0.2719874
 Dipole Y            :          5.4126456           -6.0695584           -0.6569128
 Dipole Z            :         -1.8639482            1.8962117            0.0322635
 Magnitude           :                                                    0.7117251

 ------------------------------------------------------------------------------------

*** tstop() called on Moses-MBP.lan at Thu Feb 27 17:52:24 2025
Module time:
	user time   =      70.51 seconds =       1.18 minutes
	system time =       5.66 seconds =       0.09 minutes
	total time  =         10 seconds =       0.17 minutes
Total time:
	user time   =     162.78 seconds =       2.71 minutes
	system time =      13.75 seconds =       0.23 minutes
	total time  =         22 seconds =       0.37 minutes

*** tstart() called on Moses-MBP.lan
*** at Thu Feb 27 17:52:24 2025


  //>>>>>>>>>>>>>>>>>>>>>>>>>>>>>>>>>>>//
  //               DFMP2               //
  //<<<<<<<<<<<<<<<<<<<<<<<<<<<<<<<<<<<//

   => Loading Basis Set <=

    Name: (AUG-CC-PVTZ AUX)
    Role: RIFIT
    Keyword: DF_BASIS_MP2
    atoms 1-2, 10-11 entry C          line   148 file /Users/moseschung/miniconda3/envs/psi4/share/psi4/basis/aug-cc-pvtz-ri.gbs 
    atoms 3, 12      entry O          line   264 file /Users/moseschung/miniconda3/envs/psi4/share/psi4/basis/aug-cc-pvtz-ri.gbs 
    atoms 4-9, 13-18 entry H          line    30 file /Users/moseschung/miniconda3/envs/psi4/share/psi4/basis/aug-cc-pvtz-ri.gbs 

	 --------------------------------------------------------
	                          DF-MP2                         
	      2nd-Order Density-Fitted Moller-Plesset Theory     
	              RMP2 Wavefunction,  10 Threads             
	                                                         
	        Rob Parrish, Justin Turney, Andy Simmonett,      
	           Ed Hohenstein, and C. David Sherrill          
	 --------------------------------------------------------

   => Auxiliary Basis Set <=

  Basis Set: (AUG-CC-PVTZ AUX)
    Blend: AUG-CC-PVTZ-RI
    Number of shells: 336
    Number of basis functions: 1188
    Number of Cartesian functions: 1476
    Spherical Harmonics?: true
    Max angular momentum: 4

	 --------------------------------------------------------
	                 NBF =   552, NAUX =  1188
	 --------------------------------------------------------
	   CLASS    FOCC     OCC    AOCC    AVIR     VIR    FVIR
	   PAIRS       0      13      13     539     539       0
	 --------------------------------------------------------

	-----------------------------------------------------------
	 ==================> DF-MP2 Energies <==================== 
	-----------------------------------------------------------
	 Reference Energy          =    -154.1450411096627420 [Eh]
	 Singles Energy            =      -0.0000000000000000 [Eh]
	 Same-Spin Energy          =      -0.1481997195664980 [Eh]
	 Opposite-Spin Energy      =      -0.5183500398089436 [Eh]
	 Correlation Energy        =      -0.6665497593754416 [Eh]
	 Total Energy              =    -154.8115908690381843 [Eh]
	-----------------------------------------------------------
	 ================> DF-SCS-MP2 Energies <================== 
	-----------------------------------------------------------
	 SCS Same-Spin Scale       =       0.3333333333333333 [-]
	 SCS Opposite-Spin Scale   =       1.2000000000000000 [-]
	 SCS Same-Spin Energy      =      -0.0493999065221660 [Eh]
	 SCS Opposite-Spin Energy  =      -0.6220200477707323 [Eh]
	 SCS Correlation Energy    =      -0.6714199542928982 [Eh]
	 SCS Total Energy          =    -154.8164610639556429 [Eh]
	-----------------------------------------------------------


*** tstop() called on Moses-MBP.lan at Thu Feb 27 17:52:27 2025
Module time:
	user time   =      20.65 seconds =       0.34 minutes
	system time =       2.40 seconds =       0.04 minutes
	total time  =          3 seconds =       0.05 minutes
Total time:
	user time   =     183.43 seconds =       3.06 minutes
	system time =      16.15 seconds =       0.27 minutes
	total time  =         25 seconds =       0.42 minutes

    Psi4 stopped on: Thursday, 27 February 2025 05:52PM
    Psi4 wall time for execution: 0:00:12.88


    -----------------------------------------------------------------------
          Psi4: An Open-Source Ab Initio Electronic Structure Package
                               Psi4 1.9.1 release

                         Git: Rev {} zzzzzzz 


    D. G. A. Smith, L. A. Burns, A. C. Simmonett, R. M. Parrish,
    M. C. Schieber, R. Galvelis, P. Kraus, H. Kruse, R. Di Remigio,
    A. Alenaizan, A. M. James, S. Lehtola, J. P. Misiewicz, M. Scheurer,
    R. A. Shaw, J. B. Schriber, Y. Xie, Z. L. Glick, D. A. Sirianni,
    J. S. O'Brien, J. M. Waldrop, A. Kumar, E. G. Hohenstein,
    B. P. Pritchard, B. R. Brooks, H. F. Schaefer III, A. Yu. Sokolov,
    K. Patkowski, A. E. DePrince III, U. Bozkaya, R. A. King,
    F. A. Evangelista, J. M. Turney, T. D. Crawford, C. D. Sherrill,
    J. Chem. Phys. 152(18) 184108 (2020). https://doi.org/10.1063/5.0006002

                            Additional Code Authors
    E. T. Seidl, C. L. Janssen, E. F. Valeev, M. L. Leininger,
    J. F. Gonthier, R. M. Richard, H. R. McAlexander, M. Saitow, X. Wang,
    P. Verma, M. H. Lechner, A. Jiang, S. Behnle, A. G. Heide,
    M. F. Herbst, and D. L. Poole

             Previous Authors, Complete List of Code Contributors,
                       and Citations for Specific Modules
    https://github.com/psi4/psi4/blob/master/codemeta.json
    https://github.com/psi4/psi4/graphs/contributors
    http://psicode.org/psi4manual/master/introduction.html#citing-psifour

    -----------------------------------------------------------------------


    Psi4 started on: Thursday, 27 February 2025 05:52PM

    Process ID: 32325
    Host:       Moses-MBP.lan
    PSIDATADIR: /Users/moseschung/miniconda3/envs/psi4/share/psi4
    Memory:     9.3 GiB
    Threads:    10
    
  ==> Input QCSchema <==

--------------------------------------------------------------------------
{'driver': 'energy',
 'extras': {'psiapi': True, 'wfn_qcvars_only': True},
 'id': None,
 'keywords': {'SCF_TYPE': 'DF', 'function_kwargs': {}},
 'model': {'basis': 'aug-cc-pvtz', 'method': 'mp2'},
 'molecule': {'atom_labels': ['', '', '', '', '', '', '', '', '', '', '', '', '', '', '', '', '', ''],
              'atomic_numbers': [6, 6, 8, 1, 1, 1, 1, 1, 1, 6, 6, 8, 1, 1, 1, 1, 1, 1],
              'extras': {},
              'fix_com': True,
              'fix_orientation': True,
              'fix_symmetry': 'c1',
              'fragment_charges': [0.0, 0.0],
              'fragment_multiplicities': [1, 1],
              'fragments': [[0, 1, 2, 3, 4, 5, 6, 7, 8], [9, 10, 11, 12, 13, 14, 15, 16, 17]],
              'geometry': [-2.2549667218079406, -1.3354959090268035, 0.9472800224433747, -3.9231526946738455,
                           -0.021935940864314468, -0.9522972453064652, -6.177136758896549, 0.9051996010816797,
                           0.12352950709505277, -7.044063736759331, -0.48407224429727724, 0.9059895066021211,
                           -0.47653601650895144, -1.9386473553936803, 0.0837999050334274, -3.194249423288378,
                           -3.0101825397642834, 1.7166309918181422, -1.8265847064279057, -0.07000301459145979,
                           2.522584066516902, -4.326677252599608, -1.2893620251260016, -2.548983540489548,
                           -2.956892263026373, 1.6257030398394876, -1.741941983542524, 3.60914446331102,
                           2.507290512983572, -0.1284881484482541, 4.543115144652796, 0.004900059843312148,
                           0.8327286041703721, 4.053231992519735, -1.829776453853804, -1.0425600136889583,
                           4.719857449714615, -3.425551901044416, -0.5000253122483922, 3.950958124883832,
                           3.999852898653928, 1.2520115882563276, 1.5815892731668002, 2.4232638408150895,
                           -0.5055338639041018, 4.565060534147737, 3.0068755190447325, -1.8863095006230004,
                           3.578812469271297, -0.4803740502697563, 2.6097816991239027, 6.57512063982247,
                           0.11055842696991024, 1.2489067682322004],
              'mass_numbers': [12, 12, 16, 1, 1, 1, 1, 1, 1, 12, 12, 16, 1, 1, 1, 1, 1, 1],
              'masses': [12.0, 12.0, 15.99491461957, 1.00782503223, 1.00782503223, 1.00782503223, 1.00782503223,
                         1.00782503223, 1.00782503223, 12.0, 12.0, 15.99491461957, 1.00782503223, 1.00782503223,
                         1.00782503223, 1.00782503223, 1.00782503223, 1.00782503223],
              'molecular_charge': 0.0,
              'molecular_multiplicity': 1,
              'name': 'dimer',
              'provenance': {'creator': 'QCElemental',
                             'routine': 'qcelemental.molparse.from_string',
                             'version': '0.29.0'},
              'real': [True, True, True, True, True, True, True, True, True, True, True, True, True, True, True, True,
                       True, True],
              'schema_name': 'qcschema_molecule',
              'schema_version': 2,
              'symbols': ['C', 'C', 'O', 'H', 'H', 'H', 'H', 'H', 'H', 'C', 'C', 'O', 'H', 'H', 'H', 'H', 'H', 'H'],
              'validated': True},
 'protocols': {'stdout': True},
 'provenance': {'creator': 'QCElemental', 'routine': 'qcelemental.models.results', 'version': '0.29.0'},
 'schema_name': 'qcschema_input',
 'schema_version': 1}
--------------------------------------------------------------------------

Scratch directory: /tmp/
   => Libint2 <=

    Primary   basis highest AM E, G, H:  6, 6, 3
    Auxiliary basis highest AM E, G, H:  7, 7, 4
    Onebody   basis highest AM E, G, H:  -, -, -
    Solid Harmonics ordering:            Gaussian

*** tstart() called on Moses-MBP.lan
*** at Thu Feb 27 17:52:27 2025

   => Loading Basis Set <=

    Name: AUG-CC-PVTZ
    Role: ORBITAL
    Keyword: BASIS
    atoms 1-2, 10-11 entry C          line   239 file /Users/moseschung/miniconda3/envs/psi4/share/psi4/basis/aug-cc-pvtz.gbs 
    atoms 3, 12      entry O          line   331 file /Users/moseschung/miniconda3/envs/psi4/share/psi4/basis/aug-cc-pvtz.gbs 
    atoms 4-9, 13-18 entry H          line    40 file /Users/moseschung/miniconda3/envs/psi4/share/psi4/basis/aug-cc-pvtz.gbs 


         ---------------------------------------------------------
                                   SCF
               by Justin Turney, Rob Parrish, Andy Simmonett
                          and Daniel G. A. Smith
                              RHF Reference
                       10 Threads,   9536 MiB Core
         ---------------------------------------------------------

  ==> Geometry <==

    Molecular point group: c1
    Full point group: C1

    Geometry (in Bohr), charge = 0, multiplicity = 1:

       Center              X                  Y                   Z               Mass       
    ------------   -----------------  -----------------  -----------------  -----------------
         C           -2.254966721808    -1.335495909027     0.947280022443    12.000000000000
         C           -3.923152694674    -0.021935940864    -0.952297245306    12.000000000000
         O           -6.177136758897     0.905199601082     0.123529507095    15.994914619570
         H           -7.044063736759    -0.484072244297     0.905989506602     1.007825032230
         H           -0.476536016509    -1.938647355394     0.083799905033     1.007825032230
         H           -3.194249423288    -3.010182539764     1.716630991818     1.007825032230
         H           -1.826584706428    -0.070003014591     2.522584066517     1.007825032230
         H           -4.326677252600    -1.289362025126    -2.548983540490     1.007825032230
         H           -2.956892263026     1.625703039839    -1.741941983543     1.007825032230
         C            3.609144463311     2.507290512984    -0.128488148448    12.000000000000
         C            4.543115144653     0.004900059843     0.832728604170    12.000000000000
         O            4.053231992520    -1.829776453854    -1.042560013689    15.994914619570
         H            4.719857449715    -3.425551901044    -0.500025312248     1.007825032230
         H            3.950958124884     3.999852898654     1.252011588256     1.007825032230
         H            1.581589273167     2.423263840815    -0.505533863904     1.007825032230
         H            4.565060534148     3.006875519045    -1.886309500623     1.007825032230
         H            3.578812469271    -0.480374050270     2.609781699124     1.007825032230
         H            6.575120639822     0.110558426970     1.248906768232     1.007825032230

  Running in c1 symmetry.

  Rotational constants: A =      0.19720  B =      0.03318  C =      0.03076 [cm^-1]
  Rotational constants: A =   5911.89459  B =    994.56445  C =    922.13407 [MHz]
  Nuclear repulsion =  245.815453518225695

  Charge       = 0
  Multiplicity = 1
  Electrons    = 52
  Nalpha       = 26
  Nbeta        = 26

  ==> Algorithm <==

  SCF Algorithm Type is DF.
  DIIS enabled.
  MOM disabled.
  Fractional occupation disabled.
  Guess Type is SAD.
  Energy threshold   = 1.00e-08
  Density threshold  = 1.00e-08
  Integral threshold = 1.00e-12

  ==> Primary Basis <==

  Basis Set: AUG-CC-PVTZ
    Blend: AUG-CC-PVTZ
    Number of shells: 192
    Number of basis functions: 552
    Number of Cartesian functions: 630
    Spherical Harmonics?: true
    Max angular momentum: 3

   => Loading Basis Set <=

    Name: (AUG-CC-PVTZ AUX)
    Role: JKFIT
    Keyword: DF_BASIS_SCF
    atoms 1-2, 10-11 entry C          line   162 file /Users/moseschung/miniconda3/envs/psi4/share/psi4/basis/aug-cc-pvtz-jkfit.gbs 
    atoms 3, 12      entry O          line   286 file /Users/moseschung/miniconda3/envs/psi4/share/psi4/basis/aug-cc-pvtz-jkfit.gbs 
    atoms 4-9, 13-18 entry H          line    70 file /Users/moseschung/miniconda3/envs/psi4/share/psi4/basis/aug-cc-pvtz-jkfit.gbs 

  ==> Integral Setup <==

  DFHelper Memory: AOs need 2.569 GiB; user supplied 6.985 GiB. 
  Using in-core AOs.

  ==> MemDFJK: Density-Fitted J/K Matrices <==

    J tasked:                   Yes
    K tasked:                   Yes
    wK tasked:                   No
    OpenMP threads:              10
    Memory [MiB]:              7152
    Algorithm:                 Core
    Schwarz Cutoff:           1E-12
    Mask sparsity (%):       7.2976
    Fitting Condition:        1E-10

   => Auxiliary Basis Set <=

  Basis Set: (AUG-CC-PVTZ AUX)
    Blend: AUG-CC-PVTZ-JKFIT
    Number of shells: 348
    Number of basis functions: 1176
    Number of Cartesian functions: 1446
    Spherical Harmonics?: true
    Max angular momentum: 4

  Minimum eigenvalue in the overlap matrix is 7.4683265903E-06.
  Reciprocal condition number of the overlap matrix is 4.0398040824E-07.
    Using symmetric orthogonalization.

  ==> Pre-Iterations <==

  SCF Guess: Superposition of Atomic Densities via on-the-fly atomic UHF (no occupation information).

   -------------------------
    Irrep   Nso     Nmo    
   -------------------------
     A        552     552 
   -------------------------
    Total     552     552
   -------------------------

  ==> Iterations <==

                           Total Energy        Delta E     RMS |[F,P]|

   @DF-RHF iter SAD:  -307.04694181353875   -3.07047e+02   0.00000e+00 
   @DF-RHF iter   1:  -308.00459431995915   -9.57653e-01   1.32753e-03 ADIIS/DIIS
   @DF-RHF iter   2:  -308.22722213381456   -2.22628e-01   7.09855e-04 ADIIS/DIIS
   @DF-RHF iter   3:  -308.28519172473028   -5.79696e-02   1.19915e-04 ADIIS/DIIS
   @DF-RHF iter   4:  -308.28841332908928   -3.22160e-03   4.49366e-05 DIIS
   @DF-RHF iter   5:  -308.28877175542732   -3.58426e-04   8.55840e-06 DIIS
   @DF-RHF iter   6:  -308.28879229277356   -2.05373e-05   1.96023e-06 DIIS
   @DF-RHF iter   7:  -308.28879365233570   -1.35956e-06   5.82441e-07 DIIS
   @DF-RHF iter   8:  -308.28879375633551   -1.04000e-07   1.74570e-07 DIIS
   @DF-RHF iter   9:  -308.28879376739849   -1.10630e-08   4.60714e-08 DIIS
   @DF-RHF iter  10:  -308.28879376815848   -7.59997e-10   1.64866e-08 DIIS
   @DF-RHF iter  11:  -308.28879376821135   -5.28644e-11   4.79381e-09 DIIS
  Energy and wave function converged.


  ==> Post-Iterations <==

    Orbital Energies [Eh]
    ---------------------

    Doubly Occupied:                                                      

       1A    -20.561554     2A    -20.550607     3A    -11.277636  
       4A    -11.267141     5A    -11.213598     6A    -11.208800  
       7A     -1.368085     8A     -1.357371     9A     -1.018482  
      10A     -1.007015    11A     -0.842001    12A     -0.837286  
      13A     -0.708881    14A     -0.681754    15A     -0.653549  
      16A     -0.617624    17A     -0.606128    18A     -0.579143  
      19A     -0.539536    20A     -0.536318    21A     -0.528701  
      22A     -0.516869    23A     -0.493270    24A     -0.475037  
      25A     -0.444626    26A     -0.436879  

    Virtual:                                                              

      27A      0.025181    28A      0.033865    29A      0.037596  
      30A      0.039265    31A      0.050076    32A      0.054026  
      33A      0.056392    34A      0.062317    35A      0.069970  
      36A      0.076369    37A      0.090999    38A      0.092751  
      39A      0.106065    40A      0.113575    41A      0.116935  
      42A      0.126064    43A      0.129498    44A      0.130381  
      45A      0.134774    46A      0.140834    47A      0.150869  
      48A      0.155388    49A      0.162358    50A      0.166273  
      51A      0.169943    52A      0.179098    53A      0.185028  
      54A      0.190914    55A      0.199447    56A      0.204723  
      57A      0.210588    58A      0.221584    59A      0.234175  
      60A      0.236971    61A      0.250859    62A      0.259273  
      63A      0.263919    64A      0.269883    65A      0.274435  
      66A      0.282804    67A      0.292639    68A      0.294136  
      69A      0.305423    70A      0.307712    71A      0.312599  
      72A      0.315439    73A      0.326118    74A      0.331526  
      75A      0.334133    76A      0.341405    77A      0.344701  
      78A      0.348844    79A      0.360254    80A      0.362723  
      81A      0.366515    82A      0.370647    83A      0.379140  
      84A      0.387175    85A      0.390904    86A      0.400856  
      87A      0.405030    88A      0.409010    89A      0.412783  
      90A      0.418961    91A      0.422655    92A      0.428895  
      93A      0.430373    94A      0.434172    95A      0.447678  
      96A      0.449455    97A      0.452619    98A      0.455449  
      99A      0.462868   100A      0.468480   101A      0.473097  
     102A      0.478118   103A      0.479707   104A      0.487480  
     105A      0.495880   106A      0.499669   107A      0.503051  
     108A      0.514611   109A      0.517396   110A      0.522805  
     111A      0.530869   112A      0.536168   113A      0.540620  
     114A      0.542054   115A      0.551895   116A      0.556303  
     117A      0.568127   118A      0.576371   119A      0.582964  
     120A      0.586095   121A      0.592778   122A      0.601892  
     123A      0.606001   124A      0.611936   125A      0.631082  
     126A      0.632964   127A      0.643374   128A      0.653848  
     129A      0.657350   130A      0.661526   131A      0.673064  
     132A      0.692928   133A      0.703516   134A      0.720332  
     135A      0.726527   136A      0.737930   137A      0.748827  
     138A      0.766042   139A      0.780127   140A      0.790635  
     141A      0.797182   142A      0.808325   143A      0.812837  
     144A      0.824870   145A      0.831071   146A      0.841049  
     147A      0.844155   148A      0.850521   149A      0.858247  
     150A      0.861965   151A      0.865620   152A      0.872324  
     153A      0.884738   154A      0.889836   155A      0.893394  
     156A      0.904999   157A      0.912414   158A      0.918508  
     159A      0.922912   160A      0.925196   161A      0.933878  
     162A      0.936278   163A      0.946952   164A      0.952404  
     165A      0.957676   166A      0.968661   167A      0.982666  
     168A      0.992668   169A      0.998332   170A      1.006779  
     171A      1.008307   172A      1.018959   173A      1.022186  
     174A      1.031501   175A      1.039853   176A      1.045735  
     177A      1.049979   178A      1.057852   179A      1.062945  
     180A      1.067947   181A      1.077073   182A      1.087135  
     183A      1.090331   184A      1.098438   185A      1.101545  
     186A      1.108198   187A      1.113812   188A      1.114759  
     189A      1.128831   190A      1.131693   191A      1.136796  
     192A      1.145023   193A      1.152580   194A      1.159302  
     195A      1.164339   196A      1.178540   197A      1.180537  
     198A      1.185155   199A      1.189210   200A      1.207926  
     201A      1.218897   202A      1.234572   203A      1.236938  
     204A      1.243098   205A      1.252945   206A      1.259829  
     207A      1.264395   208A      1.269513   209A      1.274147  
     210A      1.281440   211A      1.291531   212A      1.305664  
     213A      1.320589   214A      1.328245   215A      1.329854  
     216A      1.350039   217A      1.359836   218A      1.368978  
     219A      1.374926   220A      1.384786   221A      1.395494  
     222A      1.407167   223A      1.411173   224A      1.420400  
     225A      1.427530   226A      1.439371   227A      1.441028  
     228A      1.462616   229A      1.467065   230A      1.482560  
     231A      1.484727   232A      1.504351   233A      1.505752  
     234A      1.511311   235A      1.530811   236A      1.552794  
     237A      1.557745   238A      1.567245   239A      1.580608  
     240A      1.587250   241A      1.611056   242A      1.612849  
     243A      1.625131   244A      1.629399   245A      1.642237  
     246A      1.650563   247A      1.656866   248A      1.663269  
     249A      1.671748   250A      1.684397   251A      1.692984  
     252A      1.695579   253A      1.703985   254A      1.712730  
     255A      1.721143   256A      1.737330   257A      1.748034  
     258A      1.757575   259A      1.768153   260A      1.769990  
     261A      1.778536   262A      1.779847   263A      1.791022  
     264A      1.807957   265A      1.812531   266A      1.822380  
     267A      1.838981   268A      1.842086   269A      1.848111  
     270A      1.857511   271A      1.871485   272A      1.882284  
     273A      1.893046   274A      1.911991   275A      1.927322  
     276A      1.942142   277A      1.945039   278A      1.949482  
     279A      1.972491   280A      1.978013   281A      1.989773  
     282A      2.001566   283A      2.009061   284A      2.017076  
     285A      2.043816   286A      2.052759   287A      2.059928  
     288A      2.066796   289A      2.081506   290A      2.104695  
     291A      2.109351   292A      2.111638   293A      2.132420  
     294A      2.143089   295A      2.161107   296A      2.170820  
     297A      2.179459   298A      2.192860   299A      2.206229  
     300A      2.218507   301A      2.242712   302A      2.260501  
     303A      2.285765   304A      2.289672   305A      2.305281  
     306A      2.321416   307A      2.328023   308A      2.341805  
     309A      2.358251   310A      2.372334   311A      2.388616  
     312A      2.406952   313A      2.419369   314A      2.434181  
     315A      2.460868   316A      2.477400   317A      2.501469  
     318A      2.535990   319A      2.541780   320A      2.558200  
     321A      2.602981   322A      2.639159   323A      2.653803  
     324A      2.682932   325A      2.711534   326A      2.715717  
     327A      2.744058   328A      2.763930   329A      2.808908  
     330A      2.829126   331A      2.868455   332A      2.882423  
     333A      2.891835   334A      2.918305   335A      2.931129  
     336A      2.942854   337A      2.966052   338A      2.980632  
     339A      2.988664   340A      3.028514   341A      3.049775  
     342A      3.059824   343A      3.073411   344A      3.107737  
     345A      3.127250   346A      3.172671   347A      3.212339  
     348A      3.237426   349A      3.310498   350A      3.343520  
     351A      3.383150   352A      3.414765   353A      3.428541  
     354A      3.471338   355A      3.485688   356A      3.491972  
     357A      3.496143   358A      3.511166   359A      3.545796  
     360A      3.560130   361A      3.603033   362A      3.615279  
     363A      3.638048   364A      3.644602   365A      3.654482  
     366A      3.666831   367A      3.680874   368A      3.701857  
     369A      3.706773   370A      3.731685   371A      3.733462  
     372A      3.752758   373A      3.778975   374A      3.785949  
     375A      3.794981   376A      3.816394   377A      3.820901  
     378A      3.834594   379A      3.840880   380A      3.847099  
     381A      3.892034   382A      3.900171   383A      3.929375  
     384A      3.936786   385A      3.940628   386A      3.961781  
     387A      3.971253   388A      3.984554   389A      3.996640  
     390A      4.009853   391A      4.029406   392A      4.037763  
     393A      4.042233   394A      4.055746   395A      4.080225  
     396A      4.100779   397A      4.106332   398A      4.117027  
     399A      4.127182   400A      4.143039   401A      4.153358  
     402A      4.162949   403A      4.182472   404A      4.184178  
     405A      4.198435   406A      4.219160   407A      4.238398  
     408A      4.245859   409A      4.260055   410A      4.275063  
     411A      4.281805   412A      4.291760   413A      4.316479  
     414A      4.342356   415A      4.349088   416A      4.369830  
     417A      4.371524   418A      4.385585   419A      4.395042  
     420A      4.455474   421A      4.459417   422A      4.497105  
     423A      4.518312   424A      4.533714   425A      4.540587  
     426A      4.551858   427A      4.569896   428A      4.586570  
     429A      4.599737   430A      4.605688   431A      4.635223  
     432A      4.649350   433A      4.656366   434A      4.688145  
     435A      4.698750   436A      4.712401   437A      4.731029  
     438A      4.749790   439A      4.761253   440A      4.777752  
     441A      4.796355   442A      4.812913   443A      4.839755  
     444A      4.875624   445A      4.884556   446A      4.899047  
     447A      4.907696   448A      4.926197   449A      4.934190  
     450A      4.955927   451A      4.963756   452A      4.980437  
     453A      4.985732   454A      5.003501   455A      5.042820  
     456A      5.057488   457A      5.064764   458A      5.081918  
     459A      5.095130   460A      5.124125   461A      5.131215  
     462A      5.146915   463A      5.165281   464A      5.183217  
     465A      5.193419   466A      5.201966   467A      5.225132  
     468A      5.250782   469A      5.262104   470A      5.279205  
     471A      5.317624   472A      5.328917   473A      5.350824  
     474A      5.374290   475A      5.388802   476A      5.417224  
     477A      5.435006   478A      5.444771   479A      5.482836  
     480A      5.488705   481A      5.503764   482A      5.509099  
     483A      5.552783   484A      5.564650   485A      5.585509  
     486A      5.601546   487A      5.621052   488A      5.639853  
     489A      5.690024   490A      5.704079   491A      5.716538  
     492A      5.757321   493A      5.760365   494A      5.786061  
     495A      5.820762   496A      5.826362   497A      5.852190  
     498A      5.883529   499A      6.015427   500A      6.037310  
     501A      6.060363   502A      6.084008   503A      6.121416  
     504A      6.159953   505A      6.170239   506A      6.210932  
     507A      6.221217   508A      6.253584   509A      6.268940  
     510A      6.295552   511A      6.321596   512A      6.344962  
     513A      6.400390   514A      6.443560   515A      6.694182  
     516A      6.711401   517A      6.738851   518A      6.770179  
     519A      6.807501   520A      6.842548   521A      6.880234  
     522A      6.912531   523A      6.960308   524A      6.977304  
     525A      6.988206   526A      7.000560   527A      7.141540  
     528A      7.209528   529A      7.355077   530A      7.359332  
     531A      7.386751   532A      7.397837   533A      7.471267  
     534A      7.538699   535A      7.543642   536A      7.555885  
     537A      7.620841   538A      7.651690   539A      7.839522  
     540A      7.864356   541A      7.912680   542A      7.982008  
     543A      8.236564   544A      8.283285   545A      8.594830  
     546A      8.644704   547A     16.151864   548A     16.228310  
     549A     17.969156   550A     18.134873   551A     18.693114  
     552A     18.879575  

    Final Occupation by Irrep:
              A 
    DOCC [    26 ]
    NA   [    26 ]
    NB   [    26 ]

  @DF-RHF Final Energy:  -308.28879376821135

   => Energetics <=

    Nuclear Repulsion Energy =            245.8154535182256950
    One-Electron Energy =                -907.5527098430292199
    Two-Electron Energy =                 353.4484625565921760
    Total Energy =                       -308.2887937682113488

Computation Completed


Properties will be evaluated at   0.000000,   0.000000,   0.000000 [a0]

Properties computed using the SCF density matrix


 Multipole Moments:

 ------------------------------------------------------------------------------------
     Multipole            Electronic (a.u.)      Nuclear  (a.u.)        Total (a.u.)
 ------------------------------------------------------------------------------------

 L = 1.  Multiply by 2.5417464519 to convert [e a0] to [Debye]
 Dipole X            :          0.6811548           -0.0000019            0.6811530
 Dipole Y            :         -0.7617592           -0.0000019           -0.7617610
 Dipole Z            :          0.5618050            0.0000057            0.5618106
 Magnitude           :                                                    1.1661391

 ------------------------------------------------------------------------------------

*** tstop() called on Moses-MBP.lan at Thu Feb 27 17:52:39 2025
Module time:
	user time   =      85.73 seconds =       1.43 minutes
	system time =       8.54 seconds =       0.14 minutes
	total time  =         12 seconds =       0.20 minutes
Total time:
	user time   =     269.40 seconds =       4.49 minutes
	system time =      24.77 seconds =       0.41 minutes
	total time  =         37 seconds =       0.62 minutes

*** tstart() called on Moses-MBP.lan
*** at Thu Feb 27 17:52:39 2025


  //>>>>>>>>>>>>>>>>>>>>>>>>>>>>>>>>>>>//
  //               DFMP2               //
  //<<<<<<<<<<<<<<<<<<<<<<<<<<<<<<<<<<<//

   => Loading Basis Set <=

    Name: (AUG-CC-PVTZ AUX)
    Role: RIFIT
    Keyword: DF_BASIS_MP2
    atoms 1-2, 10-11 entry C          line   148 file /Users/moseschung/miniconda3/envs/psi4/share/psi4/basis/aug-cc-pvtz-ri.gbs 
    atoms 3, 12      entry O          line   264 file /Users/moseschung/miniconda3/envs/psi4/share/psi4/basis/aug-cc-pvtz-ri.gbs 
    atoms 4-9, 13-18 entry H          line    30 file /Users/moseschung/miniconda3/envs/psi4/share/psi4/basis/aug-cc-pvtz-ri.gbs 

	 --------------------------------------------------------
	                          DF-MP2                         
	      2nd-Order Density-Fitted Moller-Plesset Theory     
	              RMP2 Wavefunction,  10 Threads             
	                                                         
	        Rob Parrish, Justin Turney, Andy Simmonett,      
	           Ed Hohenstein, and C. David Sherrill          
	 --------------------------------------------------------

   => Auxiliary Basis Set <=

  Basis Set: (AUG-CC-PVTZ AUX)
    Blend: AUG-CC-PVTZ-RI
    Number of shells: 336
    Number of basis functions: 1188
    Number of Cartesian functions: 1476
    Spherical Harmonics?: true
    Max angular momentum: 4

	 --------------------------------------------------------
	                 NBF =   552, NAUX =  1188
	 --------------------------------------------------------
	   CLASS    FOCC     OCC    AOCC    AVIR     VIR    FVIR
	   PAIRS       0      26      26     526     526       0
	 --------------------------------------------------------

	-----------------------------------------------------------
	 ==================> DF-MP2 Energies <==================== 
	-----------------------------------------------------------
	 Reference Energy          =    -308.2887937682113488 [Eh]
	 Singles Energy            =      -0.0000000000000000 [Eh]
	 Same-Spin Energy          =      -0.2986429045849832 [Eh]
	 Opposite-Spin Energy      =      -1.0389233307361787 [Eh]
	 Correlation Energy        =      -1.3375662353211619 [Eh]
	 Total Energy              =    -309.6263600035325112 [Eh]
	-----------------------------------------------------------
	 ================> DF-SCS-MP2 Energies <================== 
	-----------------------------------------------------------
	 SCS Same-Spin Scale       =       0.3333333333333333 [-]
	 SCS Opposite-Spin Scale   =       1.2000000000000000 [-]
	 SCS Same-Spin Energy      =      -0.0995476348616610 [Eh]
	 SCS Opposite-Spin Energy  =      -1.2467079968834145 [Eh]
	 SCS Correlation Energy    =      -1.3462556317450756 [Eh]
	 SCS Total Energy          =    -309.6350493999564151 [Eh]
	-----------------------------------------------------------


*** tstop() called on Moses-MBP.lan at Thu Feb 27 17:52:44 2025
Module time:
	user time   =      32.83 seconds =       0.55 minutes
	system time =       3.14 seconds =       0.05 minutes
	total time  =          5 seconds =       0.08 minutes
Total time:
	user time   =     302.23 seconds =       5.04 minutes
	system time =      27.92 seconds =       0.47 minutes
	total time  =         42 seconds =       0.70 minutes

    Psi4 stopped on: Thursday, 27 February 2025 05:52PM
    Psi4 wall time for execution: 0:00:16.44


  //>>>>>>>>>>>>>>>>>>>>>>>>>>>>>>>>>>>//
  //          ManyBody Results         //
  //<<<<<<<<<<<<<<<<<<<<<<<<<<<<<<<<<<<//


   ==> N-Body: Counterpoise Corrected (CP) energies <==

        n-Body     Total Energy            Interaction Energy                          N-body Contribution to Interaction Energy
                   [Eh]                    [Eh]                  [kcal/mol]            [Eh]                  [kcal/mol]
             1  N/A                         0.000000000000        0.000000000000        0.000000000000        0.000000000000
  FULL/RTN   2  N/A                        -0.002616645036       -1.641969549371       -0.002616645036       -1.641969549371


    Psi4 stopped on: Thursday, 27 February 2025 05:52PM
    Psi4 wall time for execution: 0:00:43.92

*** Psi4 exiting successfully. Buy a developer a beer!
