
Running Job 1 of 1 001_ethanol_ethanol_1.00_almo.inp
qchem 001_ethanol_ethanol_1.00_almo.inp_8781.0 /home/kchung25/scratch/qchem8781/ 1
/home/kchung25/qchem/exe/qcprog.exe_s 001_ethanol_ethanol_1.00_almo.inp_8781.0 /home/kchung25/scratch/qchem8781/
                  Welcome to Q-Chem
     A Quantum Leap Into The Future Of Chemistry


 Q-Chem 6.2, Q-Chem, Inc., Pleasanton, CA (2024)

 E. Epifanovsky,  A. T. B. Gilbert,  Xintian Feng,  Joonho Lee,  Yuezhi Mao,  
 N. Mardirossian,  P. Pokhilko,  A. White,  M. Wormit,  M. P. Coons,  
 A. L. Dempwolff,  Zhengting Gan,  D. Hait,  P. R. Horn,  L. D. Jacobson,  
 I. Kaliman,  J. Kussmann,  A. W. Lange,  Ka Un Lao,  D. S. Levine,  Jie Liu,  
 S. C. McKenzie,  A. F. Morrison,  K. D. Nanda,  F. Plasser,  D. R. Rehn,  
 M. L. Vidal,  Zhi-Qiang You,  Ying Zhu,  Huseyin Aksu,  B. Alam,  
 B. Albrecht,  A. Aldossary,  E. Alguire,  J. H. Andersen,  
 J. E. Arias-Martinez,  V. Athavale,  D. Barton,  K. Begam,  A. Behn,  
 N. Bellonzi,  Y. A. Bernard,  E. J. Berquist,  H. Burton,  A. Carreras,  
 K. Carter-Fenk,  Mathew Chow,  Romit Chakraborty,  Chandrima Chakravarty,  
 Junhan Chen,  A. D. Chien,  K. D. Closser,  V. Cofer-Shabica,  L. Cunha,  
 S. Dasgupta,  Jia Deng,  Joseph Dickinson,  M. de Wergifosse,  
 M. Diedenhofen,  Hainam Do,  Wenjie Dou,  S. Ehlert,  Po-Tung Fang,  
 S. Fatehi,  Qingguo Feng,  Jonathan Fetherolf,  T. Friedhoff,  
 Thomas Froitzheim,  Sarai Folkestad,  B. Ganoe,  J. Gayvert,  Qinghui Ge,  
 G. Gidofalvi,  M. Gimferrer,  M. Goldey,  Montgomery Gray,  J. Gomes,  
 C. Gonzalez-Espinoza,  S. Gulania,  A. Gunina,  J. A. Gyamfi,  
 M. W. D. Hanson-Heine,  P. H. P. Harbach,  A. W. Hauser,  M. F. Herbst,  
 M. Hernandez Vera,  M. Hodecker,  Z. C. Holden,  S. Houck,  Xunkun Huang,  
 Kerwin Hui,  B. C. Huynh,  K. Ikeda,  M. Ivanov,  Nayanthara K. Jayadev,  
 Hyunjun Ji,  Zuxin Jin,  Hanjie Jiang,  Subrata Jana,  B. Kaduk,  
 S. Kaehler,  R. Kang,  K. Khistyaev,  Jaehoon Kim,  Yongbin Kim,  
 P. Klunzinger,  Z. Koczor-Benda,  Joong Hoon Koh,  D. Kosenkov,  
 Saikiran Kotaru,  L. Koulias,  T. Kowalczyk,  C. M. Krauter,  K. Kue,  
 A. Kunitsa,  T. Kus,  A. Landau,  K. V. Lawler,  D. Lefrancois,  S. Lehtola,  
 Rain Li,  Shaozhi Li,  Tao E. Li,  Yi-Pei Li,  Jiashu Liang,  M. Liebenthal,  
 Hung-Hsuan Lin,  You-Sheng Lin,  Fenglai Liu,  Kuan-Yu Liu,  Xiao Liu,  
 M. Loipersberger,  A. Luenser,  C. Malbon,  Aniket Mandal,  Manisha,  
 A. Manjanath,  P. Manohar,  E. Mansoor,  S. F. Manzer,  Shan-Ping Mao,  
 A. V. Marenich,  T. Markovich,  S. Mason,  F. Matz,  S. A. Maurer,  
 Samuel May,  Alexandra McIsaac,  P. F. McLaughlin,  M. F. S. J. Menger,  
 J.-M. Mewes,  S. A. Mewes,  P. Morgante,  Mohammad Mostafanejad,  
 Madhubani Mukherjee,  J. W. Mullinax,  Quyen Nguyen,  Avik Kumar Ojha,  
 K. J. Oosterbaan,  Eno Paenurk,  Xiaoliang Pan,  G. Paran,  V. Parravicini,  
 Alexander C. Paul,  Suranjan K. Paul,  F. Pavosevic,  Zheng Pei,  S. Prager,  
 E. I. Proynov,  E. Ramos,  B. Rana,  A. E. Rask,  A. Rettig,  R. M. Richard,  
 F. Rob,  E. Rossomme,  T. Scheele,  M. Scheurer,  M. Schneider,  
 P. E. Schneider,  Tim K. Schramm,  N. Sergueev,  S. M. Sharada,  
 Hengyuan Shen,  W. Skomorowski,  D. W. Small,  C. J. Stein,  
 Alistair J. Sterling,  Yingli Su,  Yu-Chuan Su,  E. J. Sundstrom,  
 J. Talbot,  Zhen Tao,  J. Thirman,  Hung-Yi Tsai,  T. Tsuchimochi,  
 N. M. Tubman,  C. Utku,  S. P. Veccham,  O. Vydrov,  Rahel Weiss,  
 J. Wenzel,  Jonathan Wong,  J. Witte,  H. Wu,  Yanze Wu,  A. Yamada,  
 Chou-Hsun Yang,  Kun Yao,  S. Yeganeh,  S. R. Yost,  Qi Yu,  A. Zech,  
 F. Zeller,  Chongxiao Zhao,  Igor Ying Zhang,  Xing Zhang,  Yu Zhang,  
 D. Zuev,  A. Aspuru-Guzik,  A. T. Bell,  N. A. Besley,  K. B. Bravaya,  
 B. R. Brooks,  D. Casanova,  Jeng-Da Chai,  Hsing-Ta Chen,  S. Coriani,  
 C. J. Cramer,  A. E. DePrince, III,  R. A. DiStasio Jr.,  A. Dreuw,  
 B. D. Dunietz,  T. R. Furlani,  W. A. Goddard III,  S. Grimme,  
 S. Hammes-Schiffer,  T. Head-Gordon,  W. J. Hehre,  Chao-Ping Hsu,  
 T.-C. Jagau,  Yousung Jung,  A. Klamt,  Jing Kong,  D. S. Lambrecht,  
 Xiangyuan Li,  WanZhen Liang,  N. J. Mayhall,  C. W. McCurdy,  J. B. Neaton,  
 T. Neudecker,  C. Ochsenfeld,  J. A. Parkhill,  R. Peverati,  
 V. A. Rassolov,  Haisheng Ren,  Yihan Shao,  L. V. Slipchenko,  
 R. P. Steele,  J. E. Subotnik,  A. J. W. Thom,  A. Tkatchenko,  
 D. G. Truhlar,  T. Van Voorhis,  Fan Wang,  T. A. Wesolowski,  K. B. Whaley,  
 H. L. Woodcock III,  P. M. Zimmerman,  S. Faraji,  P. M. W. Gill,  
 M. Head-Gordon,  J. M. Herbert,  A. I. Krylov

 Contributors to earlier versions of Q-Chem not listed above: 
 R. D. Adamson,  B. Austin,  R. Baer,  J. Baker,  G. J. O. Beran,  
 K. Brandhorst,  S. T. Brown,  E. F. C. Byrd,  Arup K. Chakraborty,  
 G. K. L. Chan,  Chun-Min Chang,  Yunqing Chen,  C.-L. Cheng,  
 Siu Hung Chien,  D. M. Chipman,  D. L. Crittenden,  H. Dachsel,  
 R. J. Doerksen,  A. D. Dutoi,  R. G. Edgar,  J. Fosso-Tande,  
 L. Fusti-Molnar,  D. Ghosh,  A. Ghysels,  A. Golubeva-Zadorozhnaya,  
 J. Gonthier,  M. S. Gordon,  S. R. Gwaltney,  G. Hawkins,  J. E. Herr,  
 A. Heyden,  S. Hirata,  E. G. Hohenstein,  G. Kedziora,  F. J. Keil,  
 C. Kelley,  Jihan Kim,  R. A. King,  R. Z. Khaliullin,  P. P. Korambath,  
 W. Kurlancheek,  A. Laurent,  A. M. Lee,  M. S. Lee,  S. V. Levchenko,  
 Ching Yeh Lin,  D. Liotard,  E. Livshits,  R. C. Lochan,  I. Lotan,  
 L. A. Martinez-Martinez,  P. E. Maslen,  N. Nair,  D. P. O'Neill,  
 D. Neuhauser,  E. Neuscamman,  C. M. Oana,  R. Olivares-Amaya,  R. Olson,  
 T. M. Perrine,  B. Peters,  P. A. Pieniazek,  A. Prociuk,  Y. M. Rhee,  
 J. Ritchie,  M. A. Rohrdanz,  E. Rosta,  N. J. Russ,  H. F. Schaefer III,  
 M. W. Schmidt,  N. E. Schultz,  S. Sharma,  N. Shenvi,  C. D. Sherrill,  
 A. C. Simmonett,  A. Sodt,  T. Stein,  D. Stuck,  K. S. Thanthiriwatte,  
 V. Vanovschi,  L. Vogt,  Tao Wang,  A. Warshel,  M. A. Watson,  
 C. F. Williams,  Q. Wu,  X. Xu,  Jun Yang,  W. Zhang,  Yan Zhao

   Please cite Q-Chem as follows:
  "Software for the frontiers of quantum chemistry:
   An overview of developments in the Q-Chem 5 package"
   J. Chem. Phys. 155, 084801 (2021)
   https://doi.org/10.1063/5.0055522 (open access)

 Q-Chem 6.2.2 for Intel X86 EM64T Linux

 Parts of Q-Chem use Armadillo 9.900.5 (Nocturnal Misbehaviour).
 http://arma.sourceforge.net/

 Q-Chem begins on Thu Feb 27 19:18:47 2025  

 Host: 
0

     Scratch files written to /home/kchung25/scratch/qchem8781//
 Nov1724 |scratch|qcdevops|jenkins|workspace|build_RNUM -1
 Processing $rem in /home/kchung25/qchem/config/preferences:
 Processing $rem in /home/kchung25/.qchemrc:

 Q-Chem warning in module libgen/rem_setup.C, line 3433:

 Neither GIA nor STOLL is specified by user. Use STOLL as the default


 Checking the input file for inconsistencies... 	...done.

--------------------------------------------------------------
User input:
--------------------------------------------------------------
$molecule
0 1
--
0 1
C    2.303132   0.769097   0.598623
C    1.771037  -0.610986   0.306818
O    1.096965  -0.672425  -0.955992
H    1.720340  -0.407252  -1.638962
H    2.779410   0.788335   1.576531
H    1.492158   1.491832   0.589266
H    3.046547   1.060996  -0.141675
H    1.016509  -0.890517   1.035624
H    2.564219  -1.357732   0.335502
--
0 1
C   -2.068694  -0.912231   0.652520
C   -2.203838   0.340327  -0.183038
O   -0.992378   1.072278  -0.251265
H   -0.323866   0.486597  -0.635183
H   -3.019063  -1.439765   0.713933
H   -1.747026  -0.659308   1.659881
H   -1.336043  -1.585244   0.211494
H   -2.935874   1.012256   0.257752
H   -2.553701   0.083943  -1.185699
$end

$rem
JOBTYPE          eda
EDA2             1
METHOD           wB97M-V
BASIS            def2-TZVPPD
SYMMETRY         false
MEM_TOTAL        50000
MEM_STATIC       10000
THRESH           14
SCF_CONVERGENCE  8
XC_GRID          000099000590
NL_GRID          1
EDA_CLS_DISP     true
FD_MAT_VEC_PROD  FALSE
$end
--------------------------------------------------------------
 ----------------------------------------------------------------
             Standard Nuclear Orientation (Angstroms)
    I     Atom           X                Y                Z
 ----------------------------------------------------------------
    1      C       2.3158558587    -0.6970718221    -0.6035258379
    2      C       1.7507397764     0.6525201006    -0.2400017124
    3      O       1.0714229727     0.6299597541     1.0212899346
    4      H       1.6986588643     0.3427541052     1.6916996474
    5      H       2.7955459388    -0.6523693933    -1.5789303747
    6      H       1.5219643146    -1.4378432645    -0.6367846509
    7      H       3.0635413900    -1.0112768935     0.1232158883
    8      H       0.9921969403     0.9534998274    -0.9559851187
    9      H       2.5263444210     1.4178939432    -0.2248240368
   10      C      -2.0938681917     0.8830088772    -0.5859165429
   11      C      -2.2023532260    -0.4156897911     0.1802005379
   12      O      -0.9743440061    -1.1220054250     0.2141726237
   13      H      -0.3209172884    -0.5426148973     0.6321004878
   14      H      -3.0561043841     1.3909398213    -0.6229648918
   15      H      -1.7631918916     0.6924427724    -1.6040296381
   16      H      -1.3785415484     1.5479777311    -0.1059664045
   17      H      -2.9170911148    -1.0795750396    -0.2994527095
   18      H      -2.5612826785    -0.2220675330     1.1936826663
 ----------------------------------------------------------------
 Molecular Point Group                 C1    NOp =  1
 Largest Abelian Subgroup              C1    NOp =  1
 Nuclear Repulsion Energy =         260.77231671 hartrees
 There are       26 alpha and       26 beta electrons
 Requested basis set is def2-TZVPPD
 There are 164 shells and 432 basis functions

 Q-Chem warning in module libmdc/get_mega.C, line 167:

 Allowed MEM_STATIC has been capped at MEM_STATIC=8191.
 Reduce the value of MEM_STATIC to silence this warning.


 Total QAlloc Memory Limit  50000 MB
 Mega-Array Size      8007 MB
 MEM_STATIC part      8191 MB

 A cutoff of  1.0D-14 yielded  12580 shell pairs
 There are     87092 function pairs (    107355 Cartesian)
 Smallest overlap matrix eigenvalue = 8.34E-06

 Scale SEOQF with 1.000000e-01/1.000000e-01/1.000000e-01

 Standard Electronic Orientation quadrupole field applied
 Nucleus-field energy     =     0.0000000065 hartrees

 -----------------------------------------------------------------------
  General SCF calculation program by
  Eric Jon Sundstrom, Paul Horn, Yuezhi Mao, Dmitri Zuev, Alec White,
  David Stuck, Shaama M.S., Shane Yost, Joonho Lee, David Small,
  Daniel Levine, Susi Lehtola, Hugh Burton, Evgeny Epifanovsky,
  Bang C. Huynh
 -----------------------------------------------------------------------
================================================================
                 ALMO-EDA with the EDA2 driver                  
================================================================
 The second-generation ALMO-EDA (for DFT):                      
 P. R. Horn, Y. Mao and M. Head-Gordon, PCCP, 18, 23067 (2016)  
 Y. Mao et al. Annu. Rev. Phys. Chem. 72, 641 (2021)            
 Decomposition of the frozen energy:                            
 P. R. Horn, Y. Mao and M. Head-Gordon, JCP, 144, 114107 (2016) 
 FERF model for polarization:                                   
 P. R. Horn and M. Head-Gordon, JCP, 143, 114111 (2015)         
================================================================
 Using eda2 option set 1
 Option set summary: Frozen orbital wavefunction, initial wavefunction decomposition, and nDQ polarization.
--------------------------------
Printing EDA Options
--------------------------------
eda_child_super_basis      0
fragmo_guess_mode          0
child_mp                   1
child_mp_orders            232
cls_elec                   1
cls_disp                   1
scfmi_mode                 1
scfmi_occs                 0
scfmi_virts                0
frz_relax                  0
frz_relax_method           0
dc_pen_start               0
dc_pen_conv                0
dc_pen_increment           0
dc_pen_steps               0
dc_pen_thresh_factor       0
dc_pen_pre_newton_thresh   0
frz_ortho_decomp           1
frz_ortho_decomp_conv      6
plot_mo_ortho_frz          0
frgm_method                2
scfmi_freeze_ss            0
separate_rehyb             0
plot_diff_den              0
eda_nocv                   0
eda_vct_relax              1
disp_free_x                0
disp_free_c                0
eda_bsse                   0
eda_pct_a                  0
eda_covp                   0
eda_pol_a                  0
eda_vct_a                  0
has_sol                    0
print_level                1
--------------------------------
 Attempting to make child job directory: /home/kchung25/scratch/qchem8781//Frg1/
 Attempting to make child job directory: /home/kchung25/scratch/qchem8781//Frg2/
 Creating input file /home/kchung25/scratch/qchem8781/Frg1.input
 using default PutDataFrgm: nothing
 calling putenv with: QCSCRATCH=/home/kchung25/scratch/qchem8781/ 
 Spawning Job For Fragment 0
 Done Job For Fragment 0
 calling putenv with: QCSCRATCH=/home/kchung25/scratch 
 calling putenv with: QCTHREADS=10 
 Creating input file /home/kchung25/scratch/qchem8781/Frg2.input
 using default PutDataFrgm: nothing
 calling putenv with: QCSCRATCH=/home/kchung25/scratch/qchem8781/ 
 Spawning Job For Fragment 1
 Done Job For Fragment 1
 calling putenv with: QCSCRATCH=/home/kchung25/scratch 
 calling putenv with: QCTHREADS=10 
Doing General SCFMI
 Exchange:     0.1500 Hartree-Fock + 1.0000 wB97M-V + LR-HF
 Correlation:  1.0000 wB97M-V
 Using Euler-Maclaurin-Lebedev (99,590) quadrature formula
 Nonlocal Correlation:  VV10 with C = 0.0100 and b = 6.00 and scale = 1.00000
 Grid used for NLC:  SG-1 standard quadrature
performing fock build before subrot guess so that all methods have access
Printing subrot_rss_gen Method Specification:
Occupied Subspace Method is 0
Virtual Subspace Method is 0
Energy of the unrelaxed supersystem initial determinant -310.061773150398
write pseudocanon occs and virts to disk
write pseudocanon orbital energies to disk
Tolerance of ortho_decomp_scf: 1.00e-06
GDM subspace size: 20
Beginning the Orthogonal Decomposition of the Initial Supersystem Wavefunction
    1    -309.9985268539      1.09e-01     ortho_decomp Preconditoned Steepest Descent
    2    -310.0071368199      2.39e-03     ortho_decomp BFGS Step
    3    -310.0071627498      1.92e-04     ortho_decomp BFGS Step
    4    -310.0071627876      6.42e-06     ortho_decomp BFGS Step
    5    -310.0071627877      1.80e-07     ortho_decomp 00000 Convergence criterion met
 Hartree-Fock
 Hartree-Fock
 Hartree-Fock
 Exchange:     0.1500 Hartree-Fock + 1.0000 wB97M-V + LR-HF
 Correlation:  1.0000 wB97M-V
 Using Euler-Maclaurin-Lebedev (99,590) quadrature formula
 Nonlocal Correlation:  VV10 with C = 0.0100 and b = 6.00 and scale = 1.00000
 Grid used for NLC:  SG-1 standard quadrature
 Long-range K will be added via erf
 Coulomb attenuation parameter = 0.3 bohr**(-1)
 Nonlocal correlation = 2.035197107588e-01
Doing General SCFMI
 Exchange:     0.1500 Hartree-Fock + 1.0000 wB97M-V + LR-HF
 Correlation:  1.0000 wB97M-V
 Using Euler-Maclaurin-Lebedev (99,590) quadrature formula
 Nonlocal Correlation:  VV10 with C = 0.0100 and b = 6.00 and scale = 1.00000
 Grid used for NLC:  SG-1 standard quadrature
performing fock build at end of subrot_r(subrot) constructor so that all methods have access
<S^2> of initial wavefunction before polarization iterations 0.0000000000
Beginning iterations for the determination of the polarized wavefunction
Energy prior to optimization (guess energy) = -310.061773231311
Begin Timing: Total SCF Calculation
begin iterations for algorithm: DIIS         
the SCF tolerance is set to 1.00e-08
    1    -310.0617732313      3.34e-04     00000 
    2    -310.0649070685      1.10e-04     00000 
    3    -310.0651778374      6.97e-05     00000 
    4    -310.0652498405      2.48e-05     00000 
    5    -310.0652648785      8.52e-06     00000 
    6    -310.0652693906      3.94e-06     00000 
    7    -310.0652702544      2.16e-06     00000 
    8    -310.0652705233      9.24e-07     00000 
    9    -310.0652705539      4.41e-07     00000 
   10    -310.0652705599      1.67e-07     00000 
   11    -310.0652705607      7.70e-08     00000 
   12    -310.0652705609      3.65e-08     00000 
   13    -310.0652705609      1.88e-08     00000 
   14    -310.0652705609      7.72e-09     00000 Convergence criterion met
write pseudocanon occs and virts to disk
write pseudocanon orbital energies to disk
Timing for Total SCF: 98.00s (wall), 978.52s (cpu)
<S^2> of polarized wavefunction after polarization iterations 0.0000000000
relaxing scfmi constraint to allow all rotations in the entire AO span
Doing General SCFMI
 Exchange:     0.1500 Hartree-Fock + 1.0000 wB97M-V + LR-HF
 Correlation:  1.0000 wB97M-V
 Using Euler-Maclaurin-Lebedev (99,590) quadrature formula
 Nonlocal Correlation:  VV10 with C = 0.0100 and b = 6.00 and scale = 1.00000
 Grid used for NLC:  SG-1 standard quadrature
performing fock build at end of subrot_r(subrot) constructor so that all methods have access
<S^2> of polarized wavefunction before ct-allowed iterations 0.0000000000
Beginning iterations for the determination of the CT-Allowed wavefunction
Energy prior to optimization (guess energy) = -310.065270561006
Begin Timing: Total SCF Calculation
begin iterations for algorithm: DIIS         
the SCF tolerance is set to 1.00e-08
    1    -310.0652705610      2.01e-04     00000 
    2    -310.0694310381      2.94e-05     00000 
    3    -310.0695718836      1.35e-05     00000 
    4    -310.0695830797      5.91e-06     00000 
    5    -310.0695859202      5.95e-07     00000 
    6    -310.0695859814      2.97e-07     00000 
    7    -310.0695859921      9.22e-08     00000 
    8    -310.0695859929      3.02e-08     00000 
    9    -310.0695859930      9.75e-09     00000 Convergence criterion met
write pseudocanon occs and virts to disk
write pseudocanon orbital energies to disk
Timing for Total SCF: 62.00s (wall), 613.90s (cpu)
<S^2> of ct_allowed wavefunction after ct-allowed iterations 0.0000000000

================================
        Results of EDA2         
================================
Basic EDA Quantities
--------------------
Fragment Energies (Ha):
1   -155.0294054901
2   -155.0294107566
--------------------
  E_prp (kJ/mol) = 0.0000
  E_frz (kJ/mol) = -7.7634
  E_pol (kJ/mol) = -9.1826
  E_vct (kJ/mol) = -11.3303
  E_int (kJ/mol) = -28.2763
--------------------


Decomposition of frozen interaction energy
--------------------
  --------------------
  Orthogonal Frozen Decomposition:
  --------------------
     E_elec   (ELEC)   (kJ/mol) = -96.5089
     E_pauli  (PAULI)  (kJ/mol) = 109.5466
     E_disp   (DISP)   (kJ/mol) = -20.8012
  --------------------
  Classical Frozen Decomposition:
  --------------------
     E_cls_elec  (CLS ELEC)  (kJ/mol) = -50.1533
     E_mod_pauli (MOD PAULI) (kJ/mol) = 60.2865 (FRZ - CLS ELEC - CLS DISP)
     E_cls_disp  (CLS DISP)  (kJ/mol) = -17.8966
  --------------------
--------------------

Simplified EDA Summary (kJ/mol)
--------------------
 PREPARATION      0.0000
 FROZEN           -7.7634 (ELEC + PAULI + DISP)
[ELEC + PAULI = 10.1331, DISP = -17.8966]
 POLARIZATION    -9.1826
 CHARGE TRANSFER -11.3303
 TOTAL           -28.2763     (PRP + FRZ + POL + CT)
--------------------
 
 --------------------------------------------------------------
 
                    Orbital Energies (a.u.)
 --------------------------------------------------------------
 
 Alpha MOs
 -- Occupied --
-19.3531 -19.3032 -10.3962 -10.3696 -10.3352 -10.3194  -1.1697  -1.1249
 -0.8819  -0.8579  -0.7529  -0.7270  -0.6327  -0.5953  -0.5741  -0.5583
 -0.5446  -0.5273  -0.4976  -0.4836  -0.4707  -0.4575  -0.4445  -0.4145
 -0.3962  -0.3604
 -- Virtual --
  0.0299   0.0522   0.0558   0.0579   0.0819   0.0888   0.0947   0.1019
  0.1098   0.1287   0.1326   0.1403   0.1464   0.1497   0.1593   0.1736
  0.1778   0.1836   0.1940   0.2061   0.2077   0.2092   0.2165   0.2184
  0.2380   0.2580   0.2639   0.2671   0.2717   0.2768   0.2780   0.2858
  0.2905   0.3012   0.3022   0.3073   0.3096   0.3161   0.3219   0.3274
  0.3317   0.3354   0.3411   0.3423   0.3499   0.3511   0.3565   0.3611
  0.3679   0.3736   0.3775   0.3845   0.3960   0.3977   0.4037   0.4079
  0.4113   0.4197   0.4284   0.4330   0.4366   0.4455   0.4523   0.4563
  0.4595   0.4648   0.4702   0.4796   0.4875   0.4900   0.5075   0.5126
  0.5136   0.5201   0.5258   0.5320   0.5395   0.5512   0.5550   0.5607
  0.5711   0.5850   0.5890   0.6058   0.6169   0.6316   0.6439   0.6537
  0.6587   0.6670   0.6692   0.6872   0.6899   0.6994   0.7083   0.7157
  0.7220   0.7328   0.7401   0.7496   0.7568   0.7587   0.7656   0.7705
  0.7720   0.7791   0.7834   0.7980   0.8028   0.8172   0.8332   0.8357
  0.8452   0.8604   0.8702   0.8751   0.8956   0.8985   0.9185   0.9259
  0.9482   0.9752   0.9846   0.9954   1.0072   1.0175   1.0408   1.0542
  1.0729   1.0763   1.1023   1.1217   1.1346   1.1491   1.1572   1.1748
  1.1825   1.2058   1.2125   1.2263   1.2371   1.2522   1.2613   1.2677
  1.2909   1.2936   1.2960   1.3191   1.3229   1.3308   1.3401   1.3496
  1.3629   1.3738   1.3857   1.4092   1.4231   1.4269   1.4367   1.4470
  1.4618   1.4775   1.4937   1.5170   1.5358   1.5496   1.5643   1.5860
  1.5868   1.6338   1.6472   1.6500   1.6660   1.6710   1.6851   1.7020
  1.7157   1.7218   1.7299   1.7472   1.7622   1.7711   1.7882   1.8113
  1.8238   1.8465   1.9521   1.9672   1.9766   1.9896   2.0220   2.0597
  2.0739   2.1045   2.1329   2.1640   2.1995   2.2139   2.2352   2.2728
  2.2957   2.3458   2.3814   2.3892   2.4442   2.4501   2.4827   2.5000
  2.5189   2.5481   2.6955   2.7106   2.7494   2.7684   2.7980   2.8255
  2.8313   2.8495   2.8681   2.8720   2.8995   2.9108   2.9206   2.9398
  2.9506   2.9664   2.9825   2.9881   3.0161   3.0267   3.0380   3.0624
  3.0751   3.0841   3.0981   3.1150   3.1243   3.1512   3.1700   3.1717
  3.2042   3.2131   3.2321   3.2571   3.2662   3.2699   3.2868   3.2918
  3.3117   3.3197   3.3282   3.3487   3.3574   3.3705   3.3780   3.3843
  3.4176   3.4332   3.4517   3.4738   3.4891   3.5025   3.5345   3.5667
  3.5829   3.6017   3.6130   3.6244   3.6424   3.6678   3.6934   3.7180
  3.7343   3.7413   3.7541   3.7653   3.7695   3.7914   3.7948   3.8257
  3.8489   3.8555   3.9022   3.9075   3.9550   3.9762   3.9936   4.0092
  4.0250   4.0344   4.0404   4.0452   4.0746   4.0838   4.1168   4.1350
  4.1448   4.1468   4.1614   4.1868   4.1978   4.2172   4.2189   4.2269
  4.2351   4.2562   4.2650   4.2807   4.2919   4.3080   4.3217   4.3345
  4.3497   4.3689   4.4031   4.4097   4.4416   4.4523   4.4660   4.4771
  4.4944   4.5105   4.5160   4.5364   4.5594   4.5899   4.6173   4.6453
  4.6901   4.6994   4.7114   4.7132   4.7725   4.7930   4.8213   4.8338
  4.8408   4.8711   4.9516   4.9743   4.9870   4.9953   5.0086   5.0200
  5.0396   5.0438   5.0522   5.0966   5.1772   5.1850   5.2333   5.2502
  5.3188   5.3285   5.3607   5.4202   5.4249   5.4379   5.4443   5.4526
  5.4671   5.4812   5.5049   5.5204   5.5265   5.5411   5.5965   5.6136
  5.6221   5.6477   5.6887   5.6981   5.7372   5.7594   5.7660   5.7815
  5.8049   5.8233   5.9037   5.9371   6.0650   6.1383   6.2802   6.3462
  6.6231   6.6855   6.8591   6.8886   6.8975   6.9415   7.0168   7.0334
  7.0826   7.1307   7.3633   7.4576   7.5525   7.6710   7.8166   7.9010
 23.7978  23.8271  24.0816  24.1235  44.7435  44.8552
 --------------------------------------------------------------
 
          Ground-State Mulliken Net Atomic Charges

     Atom                 Charge (a.u.)
  ----------------------------------------
      1 C                    -0.906607
      2 C                    -0.220897
      3 O                    -0.384087
      4 H                     0.127192
      5 H                     0.278855
      6 H                     0.249268
      7 H                     0.282985
      8 H                     0.232762
      9 H                     0.357109
     10 C                    -0.960796
     11 C                    -0.206310
     12 O                    -0.481508
     13 H                     0.248003
     14 H                     0.326989
     15 H                     0.252118
     16 H                     0.221880
     17 H                     0.277854
     18 H                     0.305191
  ----------------------------------------
  Sum of atomic charges =     0.000000

 -----------------------------------------------------------------
                    Cartesian Multipole Moments
 -----------------------------------------------------------------
    Charge (ESU x 10^10)
                -0.0000
    Dipole Moment (Debye)
         X       1.9761      Y       1.2925      Z       0.1790
       Tot       2.3680
    Quadrupole Moments (Debye-Ang)
        XX     -33.7438     XY      -1.0393     YY     -44.8641
        XZ       1.8598     YZ      -0.4996     ZZ     -38.2656
    Octopole Moments (Debye-Ang^2)
       XXX       6.3218    XXY       0.8968    XYY       3.2885
       YYY       2.1452    XXZ       6.1500    XYZ      -1.5487
       YYZ      -0.4553    XZZ       7.4355    YZZ      -1.0641
       ZZZ      10.6290
    Hexadecapole Moments (Debye-Ang^3)
      XXXX    -895.5225   XXXY      14.9493   XXYY    -191.2671
      XYYY       6.5185   YYYY    -230.5696   XXXZ      18.3458
      XXYZ       3.0198   XYYZ       2.2919   YYYZ       3.2060
      XXZZ    -167.0144   XYZZ       2.9153   YYZZ     -66.6546
      XZZZ      13.4213   YZZZ       2.7024   ZZZZ    -138.4265
 -----------------------------------------------------------------
 Total job time:  464.44s(wall), 2876.51s(cpu) 
 Thu Feb 27 19:26:32 2025

        *************************************************************
        *                                                           *
        *  Thank you very much for using Q-Chem.  Have a nice day.  *
        *                                                           *
        *************************************************************


