
Running Job 1 of 1 001_ethanol_ethanol_0.80_almo.inp
qchem 001_ethanol_ethanol_0.80_almo.inp_7785.0 /home/kchung25/scratch/qchem7785/ 1
/home/kchung25/qchem/exe/qcprog.exe_s 001_ethanol_ethanol_0.80_almo.inp_7785.0 /home/kchung25/scratch/qchem7785/
                  Welcome to Q-Chem
     A Quantum Leap Into The Future Of Chemistry


 Q-Chem 6.2, Q-Chem, Inc., Pleasanton, CA (2024)

 E. Epifanovsky,  A. T. B. Gilbert,  Xintian Feng,  Joonho Lee,  Yuezhi Mao,  
 N. Mardirossian,  P. Pokhilko,  A. White,  M. Wormit,  M. P. Coons,  
 A. L. Dempwolff,  Zhengting Gan,  D. Hait,  P. R. Horn,  L. D. Jacobson,  
 I. Kaliman,  J. Kussmann,  A. W. Lange,  Ka Un Lao,  D. S. Levine,  Jie Liu,  
 S. C. McKenzie,  A. F. Morrison,  K. D. Nanda,  F. Plasser,  D. R. Rehn,  
 M. L. Vidal,  Zhi-Qiang You,  Ying Zhu,  Huseyin Aksu,  B. Alam,  
 B. Albrecht,  A. Aldossary,  E. Alguire,  J. H. Andersen,  
 J. E. Arias-Martinez,  V. Athavale,  D. Barton,  K. Begam,  A. Behn,  
 N. Bellonzi,  Y. A. Bernard,  E. J. Berquist,  H. Burton,  A. Carreras,  
 K. Carter-Fenk,  Mathew Chow,  Romit Chakraborty,  Chandrima Chakravarty,  
 Junhan Chen,  A. D. Chien,  K. D. Closser,  V. Cofer-Shabica,  L. Cunha,  
 S. Dasgupta,  Jia Deng,  Joseph Dickinson,  M. de Wergifosse,  
 M. Diedenhofen,  Hainam Do,  Wenjie Dou,  S. Ehlert,  Po-Tung Fang,  
 S. Fatehi,  Qingguo Feng,  Jonathan Fetherolf,  T. Friedhoff,  
 Thomas Froitzheim,  Sarai Folkestad,  B. Ganoe,  J. Gayvert,  Qinghui Ge,  
 G. Gidofalvi,  M. Gimferrer,  M. Goldey,  Montgomery Gray,  J. Gomes,  
 C. Gonzalez-Espinoza,  S. Gulania,  A. Gunina,  J. A. Gyamfi,  
 M. W. D. Hanson-Heine,  P. H. P. Harbach,  A. W. Hauser,  M. F. Herbst,  
 M. Hernandez Vera,  M. Hodecker,  Z. C. Holden,  S. Houck,  Xunkun Huang,  
 Kerwin Hui,  B. C. Huynh,  K. Ikeda,  M. Ivanov,  Nayanthara K. Jayadev,  
 Hyunjun Ji,  Zuxin Jin,  Hanjie Jiang,  Subrata Jana,  B. Kaduk,  
 S. Kaehler,  R. Kang,  K. Khistyaev,  Jaehoon Kim,  Yongbin Kim,  
 P. Klunzinger,  Z. Koczor-Benda,  Joong Hoon Koh,  D. Kosenkov,  
 Saikiran Kotaru,  L. Koulias,  T. Kowalczyk,  C. M. Krauter,  K. Kue,  
 A. Kunitsa,  T. Kus,  A. Landau,  K. V. Lawler,  D. Lefrancois,  S. Lehtola,  
 Rain Li,  Shaozhi Li,  Tao E. Li,  Yi-Pei Li,  Jiashu Liang,  M. Liebenthal,  
 Hung-Hsuan Lin,  You-Sheng Lin,  Fenglai Liu,  Kuan-Yu Liu,  Xiao Liu,  
 M. Loipersberger,  A. Luenser,  C. Malbon,  Aniket Mandal,  Manisha,  
 A. Manjanath,  P. Manohar,  E. Mansoor,  S. F. Manzer,  Shan-Ping Mao,  
 A. V. Marenich,  T. Markovich,  S. Mason,  F. Matz,  S. A. Maurer,  
 Samuel May,  Alexandra McIsaac,  P. F. McLaughlin,  M. F. S. J. Menger,  
 J.-M. Mewes,  S. A. Mewes,  P. Morgante,  Mohammad Mostafanejad,  
 Madhubani Mukherjee,  J. W. Mullinax,  Quyen Nguyen,  Avik Kumar Ojha,  
 K. J. Oosterbaan,  Eno Paenurk,  Xiaoliang Pan,  G. Paran,  V. Parravicini,  
 Alexander C. Paul,  Suranjan K. Paul,  F. Pavosevic,  Zheng Pei,  S. Prager,  
 E. I. Proynov,  E. Ramos,  B. Rana,  A. E. Rask,  A. Rettig,  R. M. Richard,  
 F. Rob,  E. Rossomme,  T. Scheele,  M. Scheurer,  M. Schneider,  
 P. E. Schneider,  Tim K. Schramm,  N. Sergueev,  S. M. Sharada,  
 Hengyuan Shen,  W. Skomorowski,  D. W. Small,  C. J. Stein,  
 Alistair J. Sterling,  Yingli Su,  Yu-Chuan Su,  E. J. Sundstrom,  
 J. Talbot,  Zhen Tao,  J. Thirman,  Hung-Yi Tsai,  T. Tsuchimochi,  
 N. M. Tubman,  C. Utku,  S. P. Veccham,  O. Vydrov,  Rahel Weiss,  
 J. Wenzel,  Jonathan Wong,  J. Witte,  H. Wu,  Yanze Wu,  A. Yamada,  
 Chou-Hsun Yang,  Kun Yao,  S. Yeganeh,  S. R. Yost,  Qi Yu,  A. Zech,  
 F. Zeller,  Chongxiao Zhao,  Igor Ying Zhang,  Xing Zhang,  Yu Zhang,  
 D. Zuev,  A. Aspuru-Guzik,  A. T. Bell,  N. A. Besley,  K. B. Bravaya,  
 B. R. Brooks,  D. Casanova,  Jeng-Da Chai,  Hsing-Ta Chen,  S. Coriani,  
 C. J. Cramer,  A. E. DePrince, III,  R. A. DiStasio Jr.,  A. Dreuw,  
 B. D. Dunietz,  T. R. Furlani,  W. A. Goddard III,  S. Grimme,  
 S. Hammes-Schiffer,  T. Head-Gordon,  W. J. Hehre,  Chao-Ping Hsu,  
 T.-C. Jagau,  Yousung Jung,  A. Klamt,  Jing Kong,  D. S. Lambrecht,  
 Xiangyuan Li,  WanZhen Liang,  N. J. Mayhall,  C. W. McCurdy,  J. B. Neaton,  
 T. Neudecker,  C. Ochsenfeld,  J. A. Parkhill,  R. Peverati,  
 V. A. Rassolov,  Haisheng Ren,  Yihan Shao,  L. V. Slipchenko,  
 R. P. Steele,  J. E. Subotnik,  A. J. W. Thom,  A. Tkatchenko,  
 D. G. Truhlar,  T. Van Voorhis,  Fan Wang,  T. A. Wesolowski,  K. B. Whaley,  
 H. L. Woodcock III,  P. M. Zimmerman,  S. Faraji,  P. M. W. Gill,  
 M. Head-Gordon,  J. M. Herbert,  A. I. Krylov

 Contributors to earlier versions of Q-Chem not listed above: 
 R. D. Adamson,  B. Austin,  R. Baer,  J. Baker,  G. J. O. Beran,  
 K. Brandhorst,  S. T. Brown,  E. F. C. Byrd,  Arup K. Chakraborty,  
 G. K. L. Chan,  Chun-Min Chang,  Yunqing Chen,  C.-L. Cheng,  
 Siu Hung Chien,  D. M. Chipman,  D. L. Crittenden,  H. Dachsel,  
 R. J. Doerksen,  A. D. Dutoi,  R. G. Edgar,  J. Fosso-Tande,  
 L. Fusti-Molnar,  D. Ghosh,  A. Ghysels,  A. Golubeva-Zadorozhnaya,  
 J. Gonthier,  M. S. Gordon,  S. R. Gwaltney,  G. Hawkins,  J. E. Herr,  
 A. Heyden,  S. Hirata,  E. G. Hohenstein,  G. Kedziora,  F. J. Keil,  
 C. Kelley,  Jihan Kim,  R. A. King,  R. Z. Khaliullin,  P. P. Korambath,  
 W. Kurlancheek,  A. Laurent,  A. M. Lee,  M. S. Lee,  S. V. Levchenko,  
 Ching Yeh Lin,  D. Liotard,  E. Livshits,  R. C. Lochan,  I. Lotan,  
 L. A. Martinez-Martinez,  P. E. Maslen,  N. Nair,  D. P. O'Neill,  
 D. Neuhauser,  E. Neuscamman,  C. M. Oana,  R. Olivares-Amaya,  R. Olson,  
 T. M. Perrine,  B. Peters,  P. A. Pieniazek,  A. Prociuk,  Y. M. Rhee,  
 J. Ritchie,  M. A. Rohrdanz,  E. Rosta,  N. J. Russ,  H. F. Schaefer III,  
 M. W. Schmidt,  N. E. Schultz,  S. Sharma,  N. Shenvi,  C. D. Sherrill,  
 A. C. Simmonett,  A. Sodt,  T. Stein,  D. Stuck,  K. S. Thanthiriwatte,  
 V. Vanovschi,  L. Vogt,  Tao Wang,  A. Warshel,  M. A. Watson,  
 C. F. Williams,  Q. Wu,  X. Xu,  Jun Yang,  W. Zhang,  Yan Zhao

   Please cite Q-Chem as follows:
  "Software for the frontiers of quantum chemistry:
   An overview of developments in the Q-Chem 5 package"
   J. Chem. Phys. 155, 084801 (2021)
   https://doi.org/10.1063/5.0055522 (open access)

 Q-Chem 6.2.2 for Intel X86 EM64T Linux

 Parts of Q-Chem use Armadillo 9.900.5 (Nocturnal Misbehaviour).
 http://arma.sourceforge.net/

 Q-Chem begins on Thu Feb 27 18:22:30 2025  

 Host: 
0

     Scratch files written to /home/kchung25/scratch/qchem7785//
 Nov1724 |scratch|qcdevops|jenkins|workspace|build_RNUM -1
 Processing $rem in /home/kchung25/qchem/config/preferences:
 Processing $rem in /home/kchung25/.qchemrc:

 Q-Chem warning in module libgen/rem_setup.C, line 3433:

 Neither GIA nor STOLL is specified by user. Use STOLL as the default


 Checking the input file for inconsistencies... 	...done.

--------------------------------------------------------------
User input:
--------------------------------------------------------------
$molecule
0 1
--
0 1
C    2.303132   0.769097   0.598623
C    1.771037  -0.610986   0.306818
O    1.096965  -0.672425  -0.955992
H    1.720340  -0.407252  -1.638962
H    2.779410   0.788335   1.576531
H    1.492158   1.491832   0.589266
H    3.046547   1.060996  -0.141675
H    1.016509  -0.890517   1.035624
H    2.564219  -1.357732   0.335502
--
0 1
C   -1.650825  -1.261172   0.511575
C   -1.785969  -0.008614  -0.323983
O   -0.574509   0.723337  -0.392210
H    0.094003   0.137656  -0.776128
H   -2.601194  -1.788706   0.572988
H   -1.329157  -1.008249   1.518936
H   -0.918174  -1.934185   0.070549
H   -2.518005   0.663315   0.116807
H   -2.135832  -0.264998  -1.326644
$end

$rem
JOBTYPE          eda
EDA2             1
METHOD           wB97M-V
BASIS            def2-TZVPPD
SYMMETRY         false
MEM_TOTAL        50000
MEM_STATIC       10000
THRESH           14
SCF_CONVERGENCE  8
XC_GRID          000099000590
NL_GRID          1
EDA_CLS_DISP     true
FD_MAT_VEC_PROD  FALSE
$end
--------------------------------------------------------------
 ----------------------------------------------------------------
             Standard Nuclear Orientation (Angstroms)
    I     Atom           X                Y                Z
 ----------------------------------------------------------------
    1      C       2.2463932541    -0.4760226621    -0.6431577306
    2      C       1.4810171072     0.7155338544    -0.1261502300
    3      O       0.7417932584     0.4067246767     1.0617141987
    4      H       1.3641434421     0.0992769181     1.7276851110
    5      H       2.7691599305    -0.2163506316    -1.5611993031
    6      H       1.5654229154    -1.2973384503    -0.8476865457
    7      H       2.9884229006    -0.8034639370     0.0835376888
    8      H       0.7294738640     1.0269348637    -0.8450524719
    9      H       2.1415217822     1.5614701467     0.0628349788
   10      C      -1.9859642036     0.8750221110    -0.4844948930
   11      C      -1.9569266409    -0.5318213124     0.0680184710
   12      O      -0.6470518840    -1.0719967503     0.0899533493
   13      H      -0.1042428777    -0.4876120708     0.6387488373
   14      H      -3.0054837259     1.2553768054    -0.5187755570
   15      H      -1.5756980421     0.8921049834    -1.4912750988
   16      H      -1.3972244830     1.5412583912     0.1429942934
   17      H      -2.5452503000    -1.1969686109    -0.5589707266
   18      H      -2.3952935022    -0.5487837649     1.0685247055
 ----------------------------------------------------------------
 Molecular Point Group                 C1    NOp =  1
 Largest Abelian Subgroup              C1    NOp =  1
 Nuclear Repulsion Energy =         274.37082215 hartrees
 There are       26 alpha and       26 beta electrons
 Requested basis set is def2-TZVPPD
 There are 164 shells and 432 basis functions

 Q-Chem warning in module libmdc/get_mega.C, line 167:

 Allowed MEM_STATIC has been capped at MEM_STATIC=8191.
 Reduce the value of MEM_STATIC to silence this warning.


 Total QAlloc Memory Limit  50000 MB
 Mega-Array Size      8007 MB
 MEM_STATIC part      8191 MB

 A cutoff of  1.0D-14 yielded  12791 shell pairs
 There are     88909 function pairs (    109790 Cartesian)
 Smallest overlap matrix eigenvalue = 6.84E-06

 Scale SEOQF with 1.000000e-01/1.000000e-01/1.000000e-01

 Standard Electronic Orientation quadrupole field applied
 Nucleus-field energy     =     0.0000000051 hartrees

 -----------------------------------------------------------------------
  General SCF calculation program by
  Eric Jon Sundstrom, Paul Horn, Yuezhi Mao, Dmitri Zuev, Alec White,
  David Stuck, Shaama M.S., Shane Yost, Joonho Lee, David Small,
  Daniel Levine, Susi Lehtola, Hugh Burton, Evgeny Epifanovsky,
  Bang C. Huynh
 -----------------------------------------------------------------------
================================================================
                 ALMO-EDA with the EDA2 driver                  
================================================================
 The second-generation ALMO-EDA (for DFT):                      
 P. R. Horn, Y. Mao and M. Head-Gordon, PCCP, 18, 23067 (2016)  
 Y. Mao et al. Annu. Rev. Phys. Chem. 72, 641 (2021)            
 Decomposition of the frozen energy:                            
 P. R. Horn, Y. Mao and M. Head-Gordon, JCP, 144, 114107 (2016) 
 FERF model for polarization:                                   
 P. R. Horn and M. Head-Gordon, JCP, 143, 114111 (2015)         
================================================================
 Using eda2 option set 1
 Option set summary: Frozen orbital wavefunction, initial wavefunction decomposition, and nDQ polarization.
--------------------------------
Printing EDA Options
--------------------------------
eda_child_super_basis      0
fragmo_guess_mode          0
child_mp                   1
child_mp_orders            232
cls_elec                   1
cls_disp                   1
scfmi_mode                 1
scfmi_occs                 0
scfmi_virts                0
frz_relax                  0
frz_relax_method           0
dc_pen_start               0
dc_pen_conv                0
dc_pen_increment           0
dc_pen_steps               0
dc_pen_thresh_factor       0
dc_pen_pre_newton_thresh   0
frz_ortho_decomp           1
frz_ortho_decomp_conv      6
plot_mo_ortho_frz          0
frgm_method                2
scfmi_freeze_ss            0
separate_rehyb             0
plot_diff_den              0
eda_nocv                   0
eda_vct_relax              1
disp_free_x                0
disp_free_c                0
eda_bsse                   0
eda_pct_a                  0
eda_covp                   0
eda_pol_a                  0
eda_vct_a                  0
has_sol                    0
print_level                1
--------------------------------
 Attempting to make child job directory: /home/kchung25/scratch/qchem7785//Frg1/
 Attempting to make child job directory: /home/kchung25/scratch/qchem7785//Frg2/
 Creating input file /home/kchung25/scratch/qchem7785/Frg1.input
 using default PutDataFrgm: nothing
 calling putenv with: QCSCRATCH=/home/kchung25/scratch/qchem7785/ 
 Spawning Job For Fragment 0
 Done Job For Fragment 0
 calling putenv with: QCSCRATCH=/home/kchung25/scratch 
 calling putenv with: QCTHREADS=10 
 Creating input file /home/kchung25/scratch/qchem7785/Frg2.input
 using default PutDataFrgm: nothing
 calling putenv with: QCSCRATCH=/home/kchung25/scratch/qchem7785/ 
 Spawning Job For Fragment 1
 Done Job For Fragment 1
 calling putenv with: QCSCRATCH=/home/kchung25/scratch 
 calling putenv with: QCTHREADS=10 
Doing General SCFMI
 Exchange:     0.1500 Hartree-Fock + 1.0000 wB97M-V + LR-HF
 Correlation:  1.0000 wB97M-V
 Using Euler-Maclaurin-Lebedev (99,590) quadrature formula
 Nonlocal Correlation:  VV10 with C = 0.0100 and b = 6.00 and scale = 1.00000
 Grid used for NLC:  SG-1 standard quadrature
performing fock build before subrot guess so that all methods have access
Printing subrot_rss_gen Method Specification:
Occupied Subspace Method is 0
Virtual Subspace Method is 0
Energy of the unrelaxed supersystem initial determinant -309.998208772269
write pseudocanon occs and virts to disk
write pseudocanon orbital energies to disk
Tolerance of ortho_decomp_scf: 1.00e-06
GDM subspace size: 20
Beginning the Orthogonal Decomposition of the Initial Supersystem Wavefunction
    1    -309.8025554742      2.58e-01     ortho_decomp Preconditoned Steepest Descent
    2    -309.8466795099      5.83e-03     ortho_decomp BFGS Step
    3    -309.8468220115      5.35e-04     ortho_decomp BFGS Step
    4    -309.8468223128      1.97e-05     ortho_decomp BFGS Step
    5    -309.8468223134      4.88e-07     ortho_decomp 00000 Convergence criterion met
 Hartree-Fock
 Hartree-Fock
 Hartree-Fock
 Exchange:     0.1500 Hartree-Fock + 1.0000 wB97M-V + LR-HF
 Correlation:  1.0000 wB97M-V
 Using Euler-Maclaurin-Lebedev (99,590) quadrature formula
 Nonlocal Correlation:  VV10 with C = 0.0100 and b = 6.00 and scale = 1.00000
 Grid used for NLC:  SG-1 standard quadrature
 Long-range K will be added via erf
 Coulomb attenuation parameter = 0.3 bohr**(-1)
 Nonlocal correlation = 2.016148361313e-01
Doing General SCFMI
 Exchange:     0.1500 Hartree-Fock + 1.0000 wB97M-V + LR-HF
 Correlation:  1.0000 wB97M-V
 Using Euler-Maclaurin-Lebedev (99,590) quadrature formula
 Nonlocal Correlation:  VV10 with C = 0.0100 and b = 6.00 and scale = 1.00000
 Grid used for NLC:  SG-1 standard quadrature
performing fock build at end of subrot_r(subrot) constructor so that all methods have access
<S^2> of initial wavefunction before polarization iterations 0.0000000000
Beginning iterations for the determination of the polarized wavefunction
Energy prior to optimization (guess energy) = -309.998208772269
Begin Timing: Total SCF Calculation
begin iterations for algorithm: DIIS         
the SCF tolerance is set to 1.00e-08
    1    -309.9982087723      8.60e-04     00000 
    2    -310.0138583211      3.40e-04     00000 
    3    -310.0155130600      2.17e-04     00000 
    4    -310.0162078176      6.59e-05     00000 
    5    -310.0163772768      2.84e-05     00000 
    6    -310.0164236895      1.46e-05     00000 
    7    -310.0164340995      8.60e-06     00000 
    8    -310.0164393078      4.08e-06     00000 
    9    -310.0164404964      2.09e-06     00000 
   10    -310.0164407657      9.12e-07     00000 
   11    -310.0164408085      4.38e-07     00000 
   12    -310.0164408151      2.39e-07     00000 
   13    -310.0164408168      1.35e-07     00000 
   14    -310.0164408172      7.03e-08     00000 
   15    -310.0164408173      3.55e-08     00000 
   16    -310.0164408173      1.80e-08     00000 
   17    -310.0164408173      7.83e-09     00000 Convergence criterion met
write pseudocanon occs and virts to disk
write pseudocanon orbital energies to disk
Timing for Total SCF: 131.00s (wall), 1296.97s (cpu)
<S^2> of polarized wavefunction after polarization iterations 0.0000000000
relaxing scfmi constraint to allow all rotations in the entire AO span
Doing General SCFMI
 Exchange:     0.1500 Hartree-Fock + 1.0000 wB97M-V + LR-HF
 Correlation:  1.0000 wB97M-V
 Using Euler-Maclaurin-Lebedev (99,590) quadrature formula
 Nonlocal Correlation:  VV10 with C = 0.0100 and b = 6.00 and scale = 1.00000
 Grid used for NLC:  SG-1 standard quadrature
performing fock build at end of subrot_r(subrot) constructor so that all methods have access
<S^2> of polarized wavefunction before ct-allowed iterations 0.0000000000
Beginning iterations for the determination of the CT-Allowed wavefunction
Energy prior to optimization (guess energy) = -310.016440817317
Begin Timing: Total SCF Calculation
begin iterations for algorithm: DIIS         
the SCF tolerance is set to 1.00e-08
    1    -310.0164408173      5.48e-04     00000 
    2    -310.0418841558      8.09e-05     00000 
    3    -310.0425723205      4.90e-05     00000 
    4    -310.0427074497      1.34e-05     00000 
    5    -310.0427222460      3.16e-06     00000 
    6    -310.0427231689      8.79e-07     00000 
    7    -310.0427232427      4.56e-07     00000 
    8    -310.0427232603      7.06e-08     00000 
    9    -310.0427232611      2.80e-08     00000 
   10    -310.0427232612      6.43e-09     00000 Convergence criterion met
write pseudocanon occs and virts to disk
write pseudocanon orbital energies to disk
Timing for Total SCF: 73.00s (wall), 732.52s (cpu)
<S^2> of ct_allowed wavefunction after ct-allowed iterations 0.0000000000

================================
        Results of EDA2         
================================
Basic EDA Quantities
--------------------
Fragment Energies (Ha):
1   -155.0294051413
2   -155.0294112367
--------------------
  E_prp (kJ/mol) = 0.0000
  E_frz (kJ/mol) = 159.1272
  E_pol (kJ/mol) = -47.8688
  E_vct (kJ/mol) = -69.0054
  E_int (kJ/mol) = 42.2530
--------------------


Decomposition of frozen interaction energy
--------------------
  --------------------
  Orthogonal Frozen Decomposition:
  --------------------
     E_elec   (ELEC)   (kJ/mol) = -276.1984
     E_pauli  (PAULI)  (kJ/mol) = 475.9777
     E_disp   (DISP)   (kJ/mol) = -40.6522
  --------------------
  Classical Frozen Decomposition:
  --------------------
     E_cls_elec  (CLS ELEC)  (kJ/mol) = -177.0604
     E_mod_pauli (MOD PAULI) (kJ/mol) = 376.2247 (FRZ - CLS ELEC - CLS DISP)
     E_cls_disp  (CLS DISP)  (kJ/mol) = -40.0372
  --------------------
--------------------

Simplified EDA Summary (kJ/mol)
--------------------
 PREPARATION      0.0000
 FROZEN           159.1272 (ELEC + PAULI + DISP)
[ELEC + PAULI = 199.1644, DISP = -40.0372]
 POLARIZATION    -47.8688
 CHARGE TRANSFER -69.0054
 TOTAL           42.2530     (PRP + FRZ + POL + CT)
--------------------
 
 --------------------------------------------------------------
 
                    Orbital Energies (a.u.)
 --------------------------------------------------------------
 
 Alpha MOs
 -- Occupied --
-19.3698 -19.2647 -10.4029 -10.3571 -10.3359 -10.3137  -1.2045  -1.0989
 -0.8883  -0.8502  -0.7620  -0.7269  -0.6553  -0.6006  -0.5780  -0.5678
 -0.5345  -0.5264  -0.4943  -0.4873  -0.4614  -0.4517  -0.4465  -0.4213
 -0.3706  -0.3401
 -- Virtual --
  0.0257   0.0513   0.0564   0.0583   0.0835   0.0902   0.0938   0.1023
  0.1096   0.1304   0.1344   0.1454   0.1480   0.1521   0.1632   0.1773
  0.1834   0.1884   0.1990   0.2073   0.2117   0.2163   0.2197   0.2212
  0.2449   0.2568   0.2669   0.2721   0.2732   0.2789   0.2842   0.2919
  0.2954   0.3032   0.3102   0.3119   0.3172   0.3223   0.3252   0.3284
  0.3381   0.3398   0.3437   0.3502   0.3520   0.3595   0.3618   0.3689
  0.3727   0.3784   0.3868   0.3958   0.4007   0.4037   0.4081   0.4189
  0.4235   0.4287   0.4393   0.4431   0.4525   0.4549   0.4586   0.4676
  0.4739   0.4799   0.4845   0.4887   0.4939   0.5108   0.5177   0.5238
  0.5269   0.5316   0.5357   0.5402   0.5470   0.5639   0.5664   0.5725
  0.5846   0.5906   0.5967   0.6181   0.6228   0.6403   0.6479   0.6604
  0.6683   0.6768   0.6825   0.6965   0.7061   0.7115   0.7176   0.7277
  0.7344   0.7384   0.7424   0.7481   0.7591   0.7661   0.7760   0.7790
  0.7838   0.7859   0.7908   0.8085   0.8197   0.8278   0.8328   0.8422
  0.8461   0.8642   0.8764   0.8904   0.9116   0.9166   0.9224   0.9484
  0.9659   0.9938   1.0056   1.0166   1.0347   1.0450   1.0623   1.0736
  1.0924   1.1114   1.1252   1.1490   1.1564   1.1728   1.1826   1.1856
  1.2029   1.2116   1.2578   1.2584   1.2639   1.2748   1.2769   1.2970
  1.3076   1.3203   1.3293   1.3314   1.3434   1.3513   1.3568   1.3677
  1.3932   1.4044   1.4143   1.4308   1.4504   1.4627   1.4728   1.4909
  1.4985   1.5162   1.5283   1.5494   1.5688   1.5884   1.5996   1.6175
  1.6295   1.6527   1.6667   1.6744   1.6871   1.6983   1.7117   1.7274
  1.7294   1.7407   1.7468   1.7560   1.7786   1.8055   1.8258   1.8394
  1.8550   1.9550   1.9741   1.9832   2.0024   2.0187   2.0263   2.0855
  2.1091   2.1306   2.1764   2.2093   2.2442   2.2743   2.2865   2.2999
  2.3505   2.3779   2.4057   2.4331   2.4706   2.4897   2.5103   2.5546
  2.5921   2.6144   2.7024   2.7316   2.7899   2.7982   2.8210   2.8372
  2.8504   2.8623   2.8889   2.8984   2.9310   2.9400   2.9473   2.9596
  2.9655   2.9905   2.9990   3.0241   3.0403   3.0496   3.0595   3.0877
  3.0966   3.1173   3.1313   3.1374   3.1638   3.1792   3.1901   3.2008
  3.2296   3.2492   3.2675   3.2730   3.2765   3.2835   3.3104   3.3146
  3.3236   3.3439   3.3539   3.3622   3.3851   3.4004   3.4334   3.4529
  3.4717   3.4828   3.5088   3.5253   3.5415   3.5552   3.5728   3.5941
  3.6106   3.6405   3.6491   3.6677   3.6893   3.7131   3.7207   3.7363
  3.7405   3.7570   3.7731   3.7895   3.7980   3.8244   3.8371   3.8565
  3.8949   3.9065   3.9215   3.9449   3.9752   3.9922   4.0030   4.0228
  4.0380   4.0621   4.0787   4.0961   4.1096   4.1192   4.1430   4.1521
  4.1675   4.1845   4.1983   4.2078   4.2307   4.2452   4.2559   4.2604
  4.2725   4.2928   4.2992   4.3161   4.3279   4.3296   4.3768   4.3844
  4.4092   4.4179   4.4302   4.4619   4.4759   4.4973   4.5056   4.5164
  4.5291   4.5402   4.5796   4.6193   4.6235   4.6633   4.6775   4.7097
  4.7184   4.7533   4.7809   4.7974   4.7984   4.8361   4.8552   4.8742
  4.8875   4.9569   4.9657   4.9939   4.9974   5.0128   5.0276   5.0342
  5.0683   5.0963   5.1327   5.1765   5.2069   5.2191   5.2662   5.3222
  5.3284   5.3845   5.4247   5.4356   5.4428   5.4561   5.4596   5.4815
  5.5189   5.5215   5.5310   5.5511   5.5598   5.5915   5.6262   5.6412
  5.6584   5.6820   5.7228   5.7501   5.7670   5.7939   5.8164   5.8244
  5.8395   5.9110   6.0077   6.0881   6.1653   6.2819   6.4003   6.5542
  6.6753   6.8264   6.8803   7.0167   7.0686   7.1084   7.1749   7.2324
  7.2678   7.3328   7.5203   7.5980   7.7581   7.8093   8.0774   8.4937
 23.8505  23.8745  24.1029  24.1761  44.8731  45.1880
 --------------------------------------------------------------
 
          Ground-State Mulliken Net Atomic Charges

     Atom                 Charge (a.u.)
  ----------------------------------------
      1 C                    -0.964916
      2 C                    -0.231015
      3 O                    -0.282867
      4 H                     0.132964
      5 H                     0.299163
      6 H                     0.293557
      7 H                     0.286535
      8 H                     0.212360
      9 H                     0.365699
     10 C                    -1.003065
     11 C                    -0.237643
     12 O                    -0.523164
     13 H                     0.251085
     14 H                     0.336718
     15 H                     0.237500
     16 H                     0.228622
     17 H                     0.278502
     18 H                     0.319967
  ----------------------------------------
  Sum of atomic charges =     0.000000

 -----------------------------------------------------------------
                    Cartesian Multipole Moments
 -----------------------------------------------------------------
    Charge (ESU x 10^10)
                -0.0000
    Dipole Moment (Debye)
         X       2.4011      Y       1.7241      Z       0.7085
       Tot       3.0397
    Quadrupole Moments (Debye-Ang)
        XX     -35.4001     XY      -0.1780     YY     -44.4641
        XZ       2.1000     YZ      -0.7967     ZZ     -37.6203
    Octopole Moments (Debye-Ang^2)
       XXX       7.1581    XXY      -0.2846    XYY       4.0143
       YYY       2.5814    XXZ       5.2484    XYZ      -1.4680
       YYZ       0.5063    XZZ       7.6045    YZZ      -1.9435
       ZZZ      11.4403
    Hexadecapole Moments (Debye-Ang^3)
      XXXX    -768.4102   XXXY       8.6757   XXYY    -163.8793
      XYYY       6.7274   YYYY    -215.6124   XXXZ      12.6463
      XXYZ       1.2874   XYYZ       2.2582   YYYZ       4.5557
      XXZZ    -143.7723   XYZZ       2.2308   YYZZ     -61.5270
      XZZZ      12.2730   YZZZ      -1.1618   ZZZZ    -132.3813
 -----------------------------------------------------------------
 Total job time:  516.64s(wall), 3395.21s(cpu) 
 Thu Feb 27 18:31:07 2025

        *************************************************************
        *                                                           *
        *  Thank you very much for using Q-Chem.  Have a nice day.  *
        *                                                           *
        *************************************************************


