
Running Job 1 of 1 002_ethanol_WA_1.20_almo.inp
qchem 002_ethanol_WA_1.20_almo.inp_6270.0 /home/kchung25/scratch/qchem6270/ 1
/home/kchung25/qchem/exe/qcprog.exe_s 002_ethanol_WA_1.20_almo.inp_6270.0 /home/kchung25/scratch/qchem6270/
                  Welcome to Q-Chem
     A Quantum Leap Into The Future Of Chemistry


 Q-Chem 6.2, Q-Chem, Inc., Pleasanton, CA (2024)

 E. Epifanovsky,  A. T. B. Gilbert,  Xintian Feng,  Joonho Lee,  Yuezhi Mao,  
 N. Mardirossian,  P. Pokhilko,  A. White,  M. Wormit,  M. P. Coons,  
 A. L. Dempwolff,  Zhengting Gan,  D. Hait,  P. R. Horn,  L. D. Jacobson,  
 I. Kaliman,  J. Kussmann,  A. W. Lange,  Ka Un Lao,  D. S. Levine,  Jie Liu,  
 S. C. McKenzie,  A. F. Morrison,  K. D. Nanda,  F. Plasser,  D. R. Rehn,  
 M. L. Vidal,  Zhi-Qiang You,  Ying Zhu,  Huseyin Aksu,  B. Alam,  
 B. Albrecht,  A. Aldossary,  E. Alguire,  J. H. Andersen,  
 J. E. Arias-Martinez,  V. Athavale,  D. Barton,  K. Begam,  A. Behn,  
 N. Bellonzi,  Y. A. Bernard,  E. J. Berquist,  H. Burton,  A. Carreras,  
 K. Carter-Fenk,  Mathew Chow,  Romit Chakraborty,  Chandrima Chakravarty,  
 Junhan Chen,  A. D. Chien,  K. D. Closser,  V. Cofer-Shabica,  L. Cunha,  
 S. Dasgupta,  Jia Deng,  Joseph Dickinson,  M. de Wergifosse,  
 M. Diedenhofen,  Hainam Do,  Wenjie Dou,  S. Ehlert,  Po-Tung Fang,  
 S. Fatehi,  Qingguo Feng,  Jonathan Fetherolf,  T. Friedhoff,  
 Thomas Froitzheim,  Sarai Folkestad,  B. Ganoe,  J. Gayvert,  Qinghui Ge,  
 G. Gidofalvi,  M. Gimferrer,  M. Goldey,  Montgomery Gray,  J. Gomes,  
 C. Gonzalez-Espinoza,  S. Gulania,  A. Gunina,  J. A. Gyamfi,  
 M. W. D. Hanson-Heine,  P. H. P. Harbach,  A. W. Hauser,  M. F. Herbst,  
 M. Hernandez Vera,  M. Hodecker,  Z. C. Holden,  S. Houck,  Xunkun Huang,  
 Kerwin Hui,  B. C. Huynh,  K. Ikeda,  M. Ivanov,  Nayanthara K. Jayadev,  
 Hyunjun Ji,  Zuxin Jin,  Hanjie Jiang,  Subrata Jana,  B. Kaduk,  
 S. Kaehler,  R. Kang,  K. Khistyaev,  Jaehoon Kim,  Yongbin Kim,  
 P. Klunzinger,  Z. Koczor-Benda,  Joong Hoon Koh,  D. Kosenkov,  
 Saikiran Kotaru,  L. Koulias,  T. Kowalczyk,  C. M. Krauter,  K. Kue,  
 A. Kunitsa,  T. Kus,  A. Landau,  K. V. Lawler,  D. Lefrancois,  S. Lehtola,  
 Rain Li,  Shaozhi Li,  Tao E. Li,  Yi-Pei Li,  Jiashu Liang,  M. Liebenthal,  
 Hung-Hsuan Lin,  You-Sheng Lin,  Fenglai Liu,  Kuan-Yu Liu,  Xiao Liu,  
 M. Loipersberger,  A. Luenser,  C. Malbon,  Aniket Mandal,  Manisha,  
 A. Manjanath,  P. Manohar,  E. Mansoor,  S. F. Manzer,  Shan-Ping Mao,  
 A. V. Marenich,  T. Markovich,  S. Mason,  F. Matz,  S. A. Maurer,  
 Samuel May,  Alexandra McIsaac,  P. F. McLaughlin,  M. F. S. J. Menger,  
 J.-M. Mewes,  S. A. Mewes,  P. Morgante,  Mohammad Mostafanejad,  
 Madhubani Mukherjee,  J. W. Mullinax,  Quyen Nguyen,  Avik Kumar Ojha,  
 K. J. Oosterbaan,  Eno Paenurk,  Xiaoliang Pan,  G. Paran,  V. Parravicini,  
 Alexander C. Paul,  Suranjan K. Paul,  F. Pavosevic,  Zheng Pei,  S. Prager,  
 E. I. Proynov,  E. Ramos,  B. Rana,  A. E. Rask,  A. Rettig,  R. M. Richard,  
 F. Rob,  E. Rossomme,  T. Scheele,  M. Scheurer,  M. Schneider,  
 P. E. Schneider,  Tim K. Schramm,  N. Sergueev,  S. M. Sharada,  
 Hengyuan Shen,  W. Skomorowski,  D. W. Small,  C. J. Stein,  
 Alistair J. Sterling,  Yingli Su,  Yu-Chuan Su,  E. J. Sundstrom,  
 J. Talbot,  Zhen Tao,  J. Thirman,  Hung-Yi Tsai,  T. Tsuchimochi,  
 N. M. Tubman,  C. Utku,  S. P. Veccham,  O. Vydrov,  Rahel Weiss,  
 J. Wenzel,  Jonathan Wong,  J. Witte,  H. Wu,  Yanze Wu,  A. Yamada,  
 Chou-Hsun Yang,  Kun Yao,  S. Yeganeh,  S. R. Yost,  Qi Yu,  A. Zech,  
 F. Zeller,  Chongxiao Zhao,  Igor Ying Zhang,  Xing Zhang,  Yu Zhang,  
 D. Zuev,  A. Aspuru-Guzik,  A. T. Bell,  N. A. Besley,  K. B. Bravaya,  
 B. R. Brooks,  D. Casanova,  Jeng-Da Chai,  Hsing-Ta Chen,  S. Coriani,  
 C. J. Cramer,  A. E. DePrince, III,  R. A. DiStasio Jr.,  A. Dreuw,  
 B. D. Dunietz,  T. R. Furlani,  W. A. Goddard III,  S. Grimme,  
 S. Hammes-Schiffer,  T. Head-Gordon,  W. J. Hehre,  Chao-Ping Hsu,  
 T.-C. Jagau,  Yousung Jung,  A. Klamt,  Jing Kong,  D. S. Lambrecht,  
 Xiangyuan Li,  WanZhen Liang,  N. J. Mayhall,  C. W. McCurdy,  J. B. Neaton,  
 T. Neudecker,  C. Ochsenfeld,  J. A. Parkhill,  R. Peverati,  
 V. A. Rassolov,  Haisheng Ren,  Yihan Shao,  L. V. Slipchenko,  
 R. P. Steele,  J. E. Subotnik,  A. J. W. Thom,  A. Tkatchenko,  
 D. G. Truhlar,  T. Van Voorhis,  Fan Wang,  T. A. Wesolowski,  K. B. Whaley,  
 H. L. Woodcock III,  P. M. Zimmerman,  S. Faraji,  P. M. W. Gill,  
 M. Head-Gordon,  J. M. Herbert,  A. I. Krylov

 Contributors to earlier versions of Q-Chem not listed above: 
 R. D. Adamson,  B. Austin,  R. Baer,  J. Baker,  G. J. O. Beran,  
 K. Brandhorst,  S. T. Brown,  E. F. C. Byrd,  Arup K. Chakraborty,  
 G. K. L. Chan,  Chun-Min Chang,  Yunqing Chen,  C.-L. Cheng,  
 Siu Hung Chien,  D. M. Chipman,  D. L. Crittenden,  H. Dachsel,  
 R. J. Doerksen,  A. D. Dutoi,  R. G. Edgar,  J. Fosso-Tande,  
 L. Fusti-Molnar,  D. Ghosh,  A. Ghysels,  A. Golubeva-Zadorozhnaya,  
 J. Gonthier,  M. S. Gordon,  S. R. Gwaltney,  G. Hawkins,  J. E. Herr,  
 A. Heyden,  S. Hirata,  E. G. Hohenstein,  G. Kedziora,  F. J. Keil,  
 C. Kelley,  Jihan Kim,  R. A. King,  R. Z. Khaliullin,  P. P. Korambath,  
 W. Kurlancheek,  A. Laurent,  A. M. Lee,  M. S. Lee,  S. V. Levchenko,  
 Ching Yeh Lin,  D. Liotard,  E. Livshits,  R. C. Lochan,  I. Lotan,  
 L. A. Martinez-Martinez,  P. E. Maslen,  N. Nair,  D. P. O'Neill,  
 D. Neuhauser,  E. Neuscamman,  C. M. Oana,  R. Olivares-Amaya,  R. Olson,  
 T. M. Perrine,  B. Peters,  P. A. Pieniazek,  A. Prociuk,  Y. M. Rhee,  
 J. Ritchie,  M. A. Rohrdanz,  E. Rosta,  N. J. Russ,  H. F. Schaefer III,  
 M. W. Schmidt,  N. E. Schultz,  S. Sharma,  N. Shenvi,  C. D. Sherrill,  
 A. C. Simmonett,  A. Sodt,  T. Stein,  D. Stuck,  K. S. Thanthiriwatte,  
 V. Vanovschi,  L. Vogt,  Tao Wang,  A. Warshel,  M. A. Watson,  
 C. F. Williams,  Q. Wu,  X. Xu,  Jun Yang,  W. Zhang,  Yan Zhao

   Please cite Q-Chem as follows:
  "Software for the frontiers of quantum chemistry:
   An overview of developments in the Q-Chem 5 package"
   J. Chem. Phys. 155, 084801 (2021)
   https://doi.org/10.1063/5.0055522 (open access)

 Q-Chem 6.2.2 for Intel X86 EM64T Linux

 Parts of Q-Chem use Armadillo 9.900.5 (Nocturnal Misbehaviour).
 http://arma.sourceforge.net/

 Q-Chem begins on Thu Feb 27 16:50:54 2025  

 Host: 
0

     Scratch files written to /home/kchung25/scratch/qchem6270//
 Nov1724 |scratch|qcdevops|jenkins|workspace|build_RNUM -1
 Processing $rem in /home/kchung25/qchem/config/preferences:
 Processing $rem in /home/kchung25/.qchemrc:

 Q-Chem warning in module libgen/rem_setup.C, line 3433:

 Neither GIA nor STOLL is specified by user. Use STOLL as the default


 Checking the input file for inconsistencies... 	...done.

--------------------------------------------------------------
User input:
--------------------------------------------------------------
$molecule
0 1
--
0 1
C    2.355352   0.003156   0.000061
C    0.937302  -0.501955  -0.000075
O    0.072422   0.620392  -0.000014
H   -0.838375   0.302130   0.000003
H    3.056621  -0.827988   0.000404
H    2.535016   0.612763   0.881313
H    2.535301   0.612274  -0.881468
H    0.761942  -1.121834   0.881890
H    0.762030  -1.121711  -0.882147
--
0 1
O   -3.257202  -0.332988  -0.000002
H   -3.707908   0.043592  -0.759524
H   -3.707758   0.042804   0.759998
$end

$rem
JOBTYPE          eda
EDA2             1
METHOD           wB97M-V
BASIS            def2-TZVPPD
SYMMETRY         false
MEM_TOTAL        50000
MEM_STATIC       10000
THRESH           14
SCF_CONVERGENCE  8
XC_GRID          000099000590
NL_GRID          1
EDA_CLS_DISP     true
FD_MAT_VEC_PROD  FALSE
$end
--------------------------------------------------------------
 ----------------------------------------------------------------
             Standard Nuclear Orientation (Angstroms)
    I     Atom           X                Y                Z
 ----------------------------------------------------------------
    1      C       2.4763024370     0.0013707574    -0.0000657124
    2      C       1.0456164803     0.4694953246     0.0000954855
    3      O       0.2101669816    -0.6749278188    -0.0000062844
    4      H      -0.7085858901    -0.3804196917    -0.0000073421
    5      H       3.1557564503     0.8504413214    -0.0003787509
    6      H       2.6717285773    -0.6033317349    -0.8813423172
    7      H       2.6720092601    -0.6029044859     0.8814386995
    8      H       0.8542177254     1.0846470997    -0.8818445214
    9      H       0.8543173698     1.0844573912     0.8821924720
   10      O      -3.1430868126     0.1916853567     0.0000317509
   11      H      -3.5838602671    -0.1964988947     0.7595406791
   12      H      -3.5837380813    -0.1956478003    -0.7599812894
 ----------------------------------------------------------------
 Molecular Point Group                 C1    NOp =  1
 Largest Abelian Subgroup              C1    NOp =  1
 Nuclear Repulsion Energy =         123.37653674 hartrees
 There are       18 alpha and       18 beta electrons
 Requested basis set is def2-TZVPPD
 There are 110 shells and 290 basis functions

 Q-Chem warning in module libmdc/get_mega.C, line 167:

 Allowed MEM_STATIC has been capped at MEM_STATIC=8191.
 Reduce the value of MEM_STATIC to silence this warning.


 Total QAlloc Memory Limit  50000 MB
 Mega-Array Size      8007 MB
 MEM_STATIC part      8191 MB


                       Distance Matrix (Angstroms)
             C (  1)   C (  2)   O (  3)   H (  4)   H (  5)   H (  6)
   C (  2)  1.505325
   O (  3)  2.364900  1.416926
   H (  4)  3.207690  1.949252  0.964801
   H (  5)  1.087464  2.144251  3.317114  4.055633
   H (  6)  1.086510  2.138254  2.615562  3.500424  1.767438
   H (  7)  1.086508  2.138214  2.615875  3.500696  1.767435  1.762781
   H (  8)  2.140603  1.092183  2.070880  2.316552  2.475665  2.480447
   H (  9)  2.140629  1.092185  2.070903  2.316637  2.475948  3.043299
   O ( 10)  5.622611  4.197906  3.463427  2.500820  6.333197  5.934724
   H ( 11)  6.110788  4.738392  3.898775  2.979588  6.862652  6.480000
   H ( 12)  6.110677  4.738255  3.898844  2.979631  6.862367  6.269912
             H (  7)   H (  8)   H (  9)   O ( 10)   H ( 11)
   H (  8)  3.043249
   H (  9)  2.480160  1.764037
   O ( 10)  5.934947  4.189693  4.189808
   H ( 11)  6.270241  4.902246  4.620965  0.960116
   H ( 12)  6.480316  4.620547  4.902218  0.960115  1.519522
 
 A cutoff of  1.0D-14 yielded   5521 shell pairs
 There are     37911 function pairs (     46527 Cartesian)
 Smallest overlap matrix eigenvalue = 1.19E-05

 Scale SEOQF with 1.000000e-01/1.000000e-01/1.000000e-01

 Standard Electronic Orientation quadrupole field applied
 Nucleus-field energy     =     0.0000000064 hartrees

 -----------------------------------------------------------------------
  General SCF calculation program by
  Eric Jon Sundstrom, Paul Horn, Yuezhi Mao, Dmitri Zuev, Alec White,
  David Stuck, Shaama M.S., Shane Yost, Joonho Lee, David Small,
  Daniel Levine, Susi Lehtola, Hugh Burton, Evgeny Epifanovsky,
  Bang C. Huynh
 -----------------------------------------------------------------------
================================================================
                 ALMO-EDA with the EDA2 driver                  
================================================================
 The second-generation ALMO-EDA (for DFT):                      
 P. R. Horn, Y. Mao and M. Head-Gordon, PCCP, 18, 23067 (2016)  
 Y. Mao et al. Annu. Rev. Phys. Chem. 72, 641 (2021)            
 Decomposition of the frozen energy:                            
 P. R. Horn, Y. Mao and M. Head-Gordon, JCP, 144, 114107 (2016) 
 FERF model for polarization:                                   
 P. R. Horn and M. Head-Gordon, JCP, 143, 114111 (2015)         
================================================================
 Using eda2 option set 1
 Option set summary: Frozen orbital wavefunction, initial wavefunction decomposition, and nDQ polarization.
--------------------------------
Printing EDA Options
--------------------------------
eda_child_super_basis      0
fragmo_guess_mode          0
child_mp                   1
child_mp_orders            232
cls_elec                   1
cls_disp                   1
scfmi_mode                 1
scfmi_occs                 0
scfmi_virts                0
frz_relax                  0
frz_relax_method           0
dc_pen_start               0
dc_pen_conv                0
dc_pen_increment           0
dc_pen_steps               0
dc_pen_thresh_factor       0
dc_pen_pre_newton_thresh   0
frz_ortho_decomp           1
frz_ortho_decomp_conv      6
plot_mo_ortho_frz          0
frgm_method                2
scfmi_freeze_ss            0
separate_rehyb             0
plot_diff_den              0
eda_nocv                   0
eda_vct_relax              1
disp_free_x                0
disp_free_c                0
eda_bsse                   0
eda_pct_a                  0
eda_covp                   0
eda_pol_a                  0
eda_vct_a                  0
has_sol                    0
print_level                1
--------------------------------
 Attempting to make child job directory: /home/kchung25/scratch/qchem6270//Frg1/
 Attempting to make child job directory: /home/kchung25/scratch/qchem6270//Frg2/
 Creating input file /home/kchung25/scratch/qchem6270/Frg1.input
 using default PutDataFrgm: nothing
 calling putenv with: QCSCRATCH=/home/kchung25/scratch/qchem6270/ 
 Spawning Job For Fragment 0
 Done Job For Fragment 0
 calling putenv with: QCSCRATCH=/home/kchung25/scratch 
 calling putenv with: QCTHREADS=2 
 Creating input file /home/kchung25/scratch/qchem6270/Frg2.input
 using default PutDataFrgm: nothing
 calling putenv with: QCSCRATCH=/home/kchung25/scratch/qchem6270/ 
 Spawning Job For Fragment 1
 Done Job For Fragment 1
 calling putenv with: QCSCRATCH=/home/kchung25/scratch 
 calling putenv with: QCTHREADS=2 
Doing General SCFMI
 Exchange:     0.1500 Hartree-Fock + 1.0000 wB97M-V + LR-HF
 Correlation:  1.0000 wB97M-V
 Using Euler-Maclaurin-Lebedev (99,590) quadrature formula
 Nonlocal Correlation:  VV10 with C = 0.0100 and b = 6.00 and scale = 1.00000
 Grid used for NLC:  SG-1 standard quadrature
performing fock build before subrot guess so that all methods have access
Printing subrot_rss_gen Method Specification:
Occupied Subspace Method is 0
Virtual Subspace Method is 0
Energy of the unrelaxed supersystem initial determinant -231.470556313588
write pseudocanon occs and virts to disk
write pseudocanon orbital energies to disk
Tolerance of ortho_decomp_scf: 1.00e-06
GDM subspace size: 20
Beginning the Orthogonal Decomposition of the Initial Supersystem Wavefunction
    1    -231.4589184732      5.44e-02     ortho_decomp Preconditoned Steepest Descent
    2    -231.4596163042      8.67e-04     ortho_decomp BFGS Step
    3    -231.4596174193      5.66e-05     ortho_decomp BFGS Step
    4    -231.4596174207      1.50e-06     ortho_decomp BFGS Step
    5    -231.4596174207      3.11e-08     ortho_decomp 00000 Convergence criterion met
 Hartree-Fock
 Hartree-Fock
 Hartree-Fock
 Exchange:     0.1500 Hartree-Fock + 1.0000 wB97M-V + LR-HF
 Correlation:  1.0000 wB97M-V
 Using Euler-Maclaurin-Lebedev (99,590) quadrature formula
 Nonlocal Correlation:  VV10 with C = 0.0100 and b = 6.00 and scale = 1.00000
 Grid used for NLC:  SG-1 standard quadrature
 Long-range K will be added via erf
 Coulomb attenuation parameter = 0.3 bohr**(-1)
 Nonlocal correlation = 1.455277488406e-01
Doing General SCFMI
 Exchange:     0.1500 Hartree-Fock + 1.0000 wB97M-V + LR-HF
 Correlation:  1.0000 wB97M-V
 Using Euler-Maclaurin-Lebedev (99,590) quadrature formula
 Nonlocal Correlation:  VV10 with C = 0.0100 and b = 6.00 and scale = 1.00000
 Grid used for NLC:  SG-1 standard quadrature
performing fock build at end of subrot_r(subrot) constructor so that all methods have access
<S^2> of initial wavefunction before polarization iterations 0.0000000000
Beginning iterations for the determination of the polarized wavefunction
Energy prior to optimization (guess energy) = -231.470556313588
Begin Timing: Total SCF Calculation
begin iterations for algorithm: DIIS         
the SCF tolerance is set to 1.00e-08
    1    -231.4705563136      1.64e-04     00000 
    2    -231.4710487079      4.66e-05     00000 
    3    -231.4710881215      1.86e-05     00000 
    4    -231.4710933459      8.12e-06     00000 
    5    -231.4710941045      2.88e-06     00000 
    6    -231.4710942204      9.57e-07     00000 
    7    -231.4710942314      2.32e-07     00000 
    8    -231.4710942325      3.63e-08     00000 
    9    -231.4710942325      1.45e-08     00000 
   10    -231.4710942325      9.19e-09     00000 Convergence criterion met
write pseudocanon occs and virts to disk
write pseudocanon orbital energies to disk
Timing for Total SCF: 75.00s (wall), 149.62s (cpu)
<S^2> of polarized wavefunction after polarization iterations 0.0000000000
relaxing scfmi constraint to allow all rotations in the entire AO span
Doing General SCFMI
 Exchange:     0.1500 Hartree-Fock + 1.0000 wB97M-V + LR-HF
 Correlation:  1.0000 wB97M-V
 Using Euler-Maclaurin-Lebedev (99,590) quadrature formula
 Nonlocal Correlation:  VV10 with C = 0.0100 and b = 6.00 and scale = 1.00000
 Grid used for NLC:  SG-1 standard quadrature
performing fock build at end of subrot_r(subrot) constructor so that all methods have access
<S^2> of polarized wavefunction before ct-allowed iterations 0.0000000000
Beginning iterations for the determination of the CT-Allowed wavefunction
Energy prior to optimization (guess energy) = -231.471094232501
Begin Timing: Total SCF Calculation
begin iterations for algorithm: DIIS         
the SCF tolerance is set to 1.00e-08
    1    -231.4710942325      8.87e-05     00000 
    2    -231.4715490776      1.34e-05     00000 
    3    -231.4715671919      3.58e-06     00000 
    4    -231.4715676245      2.89e-06     00000 
    5    -231.4715678710      1.81e-07     00000 
    6    -231.4715678742      1.08e-07     00000 
    7    -231.4715678746      2.62e-08     00000 
    8    -231.4715678746      9.17e-09     00000 Convergence criterion met
write pseudocanon occs and virts to disk
write pseudocanon orbital energies to disk
Timing for Total SCF: 59.00s (wall), 118.83s (cpu)
<S^2> of ct_allowed wavefunction after ct-allowed iterations 0.0000000000

================================
        Results of EDA2         
================================
Basic EDA Quantities
--------------------
Fragment Energies (Ha):
1   -155.0296551620
2    -76.4363864228
--------------------
  E_prp (kJ/mol) = 0.0000
  E_frz (kJ/mol) = -11.8536
  E_pol (kJ/mol) = -1.4123
  E_vct (kJ/mol) = -1.2436
  E_int (kJ/mol) = -14.5094
--------------------


Decomposition of frozen interaction energy
--------------------
  --------------------
  Orthogonal Frozen Decomposition:
  --------------------
     E_elec   (ELEC)   (kJ/mol) = -21.6863
     E_pauli  (PAULI)  (kJ/mol) = 13.2296
     E_disp   (DISP)   (kJ/mol) = -3.3969
  --------------------
  Classical Frozen Decomposition:
  --------------------
     E_cls_elec  (CLS ELEC)  (kJ/mol) = -13.7538
     E_mod_pauli (MOD PAULI) (kJ/mol) = 4.6635 (FRZ - CLS ELEC - CLS DISP)
     E_cls_disp  (CLS DISP)  (kJ/mol) = -2.7633
  --------------------
--------------------

Simplified EDA Summary (kJ/mol)
--------------------
 PREPARATION      0.0000
 FROZEN           -11.8536 (ELEC + PAULI + DISP)
[ELEC + PAULI = -9.0902, DISP = -2.7633]
 POLARIZATION    -1.4123
 CHARGE TRANSFER -1.2436
 TOTAL           -14.5094     (PRP + FRZ + POL + CT)
--------------------
 
 --------------------------------------------------------------
 
                    Orbital Energies (a.u.)
 --------------------------------------------------------------
 
 Alpha MOs
 -- Occupied --
-19.3541 -19.3154 -10.3740 -10.3180  -1.1596  -1.1346  -0.8635  -0.7165
 -0.6577  -0.6163  -0.5673  -0.5219  -0.4991  -0.4757  -0.4587  -0.4458
 -0.4234  -0.3662
 -- Virtual --
  0.0242   0.0546   0.0638   0.0711   0.0800   0.1003   0.1061   0.1184
  0.1298   0.1422   0.1501   0.1581   0.1768   0.1794   0.1816   0.2080
  0.2134   0.2198   0.2233   0.2439   0.2496   0.2632   0.2815   0.2852
  0.2878   0.2903   0.3064   0.3079   0.3131   0.3282   0.3326   0.3333
  0.3485   0.3507   0.3522   0.3622   0.3626   0.3778   0.3787   0.3887
  0.3913   0.4012   0.4146   0.4338   0.4395   0.4487   0.4496   0.4646
  0.4738   0.4747   0.4866   0.4900   0.5166   0.5234   0.5342   0.5580
  0.5633   0.5781   0.5959   0.6086   0.6432   0.6434   0.6498   0.6690
  0.6796   0.6941   0.7139   0.7217   0.7331   0.7560   0.7599   0.7635
  0.7717   0.7791   0.7877   0.7985   0.8249   0.8347   0.8553   0.8918
  0.9014   0.9105   0.9544   0.9655   0.9702   1.0018   1.0179   1.0486
  1.0634   1.1020   1.1308   1.1394   1.1610   1.1673   1.1806   1.2011
  1.2190   1.2397   1.2460   1.2513   1.2679   1.2784   1.2810   1.3420
  1.3571   1.3585   1.3749   1.4107   1.4118   1.4133   1.4827   1.4837
  1.5560   1.6047   1.6260   1.6333   1.6540   1.6731   1.6849   1.6957
  1.7363   1.7814   1.9163   1.9349   1.9621   1.9793   1.9830   2.0593
  2.0955   2.1111   2.1742   2.1901   2.2373   2.2530   2.2795   2.3467
  2.4097   2.4177   2.5249   2.5905   2.6949   2.7243   2.7409   2.7693
  2.8463   2.8513   2.8560   2.9277   2.9469   2.9766   2.9876   2.9979
  3.0422   3.0619   3.0645   3.1317   3.1478   3.1851   3.2010   3.2128
  3.2277   3.2278   3.2472   3.2543   3.2723   3.2966   3.3133   3.3487
  3.3861   3.4046   3.4531   3.4607   3.4641   3.4752   3.5142   3.5443
  3.5613   3.6061   3.6201   3.6660   3.6783   3.6990   3.6992   3.7758
  3.7841   3.7990   3.8905   3.9092   3.9251   3.9720   3.9892   4.0152
  4.0190   4.0719   4.0783   4.1031   4.1141   4.1193   4.1407   4.1463
  4.1821   4.1824   4.2001   4.2086   4.2328   4.2695   4.2764   4.2808
  4.3352   4.3628   4.3954   4.4737   4.4752   4.5032   4.5395   4.5916
  4.6624   4.6785   4.7093   4.7305   4.7765   4.8370   4.8600   4.9325
  4.9526   4.9718   4.9836   5.0086   5.0363   5.1150   5.1995   5.2825
  5.3145   5.3616   5.4189   5.4320   5.4473   5.4797   5.5200   5.5679
  5.6400   5.6555   5.7022   5.7631   5.7967   5.8382   5.9718   6.1193
  6.2551   6.2765   6.5447   6.5831   6.6665   6.6669   6.6813   6.7738
  6.8406   6.8717   6.8749   6.9675   7.0517   7.0600   7.3758   7.5138
  7.5902   7.6260   7.8178   7.8295  23.7659  24.0838  44.3142  44.7812
 --------------------------------------------------------------
 
          Ground-State Mulliken Net Atomic Charges

     Atom                 Charge (a.u.)
  ----------------------------------------
      1 C                    -1.024765
      2 C                    -0.179301
      3 O                    -0.416454
      4 H                     0.189025
      5 H                     0.299124
      6 H                     0.268914
      7 H                     0.268891
      8 H                     0.296992
      9 H                     0.296960
     10 O                    -0.336476
     11 H                     0.168545
     12 H                     0.168545
  ----------------------------------------
  Sum of atomic charges =     0.000000

 -----------------------------------------------------------------
                    Cartesian Multipole Moments
 -----------------------------------------------------------------
    Charge (ESU x 10^10)
                -0.0000
    Dipole Moment (Debye)
         X      -2.2942      Y       0.3254      Z      -0.0007
       Tot       2.3172
    Quadrupole Moments (Debye-Ang)
        XX     -15.2989     XY       5.3956     YY     -29.4917
        XZ       0.0028     YZ      -0.0015     ZZ     -25.0495
    Octopole Moments (Debye-Ang^2)
       XXX     -63.4471    XXY     -17.2053    XYY      -3.3047
       YYY      -0.7081    XXZ      -0.0102    XYZ       0.0054
       YYZ      -0.0003    XZZ     -13.4487    YZZ      -0.7965
       ZZZ      -0.0012
    Hexadecapole Moments (Debye-Ang^3)
      XXXX    -608.8427   XXXY      61.9560   XXYY    -149.9852
      XYYY       2.4798   YYYY     -74.9518   XXXZ       0.0324
      XXYZ      -0.0208   XYYZ      -0.0025   YYYZ      -0.0012
      XXZZ    -109.5373   XYZZ       0.2762   YYZZ     -19.2172
      XZZZ       0.0084   YZZZ      -0.0014   ZZZZ     -42.5458
 -----------------------------------------------------------------
 Total job time:  618.39s(wall), 539.94s(cpu) 
 Thu Feb 27 17:01:12 2025

        *************************************************************
        *                                                           *
        *  Thank you very much for using Q-Chem.  Have a nice day.  *
        *                                                           *
        *************************************************************


