
Running Job 1 of 1 002_ethanol_WA_1.10_almo.inp
qchem 002_ethanol_WA_1.10_almo.inp_5452.0 /home/kchung25/scratch/qchem5452/ 1
/home/kchung25/qchem/exe/qcprog.exe_s 002_ethanol_WA_1.10_almo.inp_5452.0 /home/kchung25/scratch/qchem5452/
                  Welcome to Q-Chem
     A Quantum Leap Into The Future Of Chemistry


 Q-Chem 6.2, Q-Chem, Inc., Pleasanton, CA (2024)

 E. Epifanovsky,  A. T. B. Gilbert,  Xintian Feng,  Joonho Lee,  Yuezhi Mao,  
 N. Mardirossian,  P. Pokhilko,  A. White,  M. Wormit,  M. P. Coons,  
 A. L. Dempwolff,  Zhengting Gan,  D. Hait,  P. R. Horn,  L. D. Jacobson,  
 I. Kaliman,  J. Kussmann,  A. W. Lange,  Ka Un Lao,  D. S. Levine,  Jie Liu,  
 S. C. McKenzie,  A. F. Morrison,  K. D. Nanda,  F. Plasser,  D. R. Rehn,  
 M. L. Vidal,  Zhi-Qiang You,  Ying Zhu,  Huseyin Aksu,  B. Alam,  
 B. Albrecht,  A. Aldossary,  E. Alguire,  J. H. Andersen,  
 J. E. Arias-Martinez,  V. Athavale,  D. Barton,  K. Begam,  A. Behn,  
 N. Bellonzi,  Y. A. Bernard,  E. J. Berquist,  H. Burton,  A. Carreras,  
 K. Carter-Fenk,  Mathew Chow,  Romit Chakraborty,  Chandrima Chakravarty,  
 Junhan Chen,  A. D. Chien,  K. D. Closser,  V. Cofer-Shabica,  L. Cunha,  
 S. Dasgupta,  Jia Deng,  Joseph Dickinson,  M. de Wergifosse,  
 M. Diedenhofen,  Hainam Do,  Wenjie Dou,  S. Ehlert,  Po-Tung Fang,  
 S. Fatehi,  Qingguo Feng,  Jonathan Fetherolf,  T. Friedhoff,  
 Thomas Froitzheim,  Sarai Folkestad,  B. Ganoe,  J. Gayvert,  Qinghui Ge,  
 G. Gidofalvi,  M. Gimferrer,  M. Goldey,  Montgomery Gray,  J. Gomes,  
 C. Gonzalez-Espinoza,  S. Gulania,  A. Gunina,  J. A. Gyamfi,  
 M. W. D. Hanson-Heine,  P. H. P. Harbach,  A. W. Hauser,  M. F. Herbst,  
 M. Hernandez Vera,  M. Hodecker,  Z. C. Holden,  S. Houck,  Xunkun Huang,  
 Kerwin Hui,  B. C. Huynh,  K. Ikeda,  M. Ivanov,  Nayanthara K. Jayadev,  
 Hyunjun Ji,  Zuxin Jin,  Hanjie Jiang,  Subrata Jana,  B. Kaduk,  
 S. Kaehler,  R. Kang,  K. Khistyaev,  Jaehoon Kim,  Yongbin Kim,  
 P. Klunzinger,  Z. Koczor-Benda,  Joong Hoon Koh,  D. Kosenkov,  
 Saikiran Kotaru,  L. Koulias,  T. Kowalczyk,  C. M. Krauter,  K. Kue,  
 A. Kunitsa,  T. Kus,  A. Landau,  K. V. Lawler,  D. Lefrancois,  S. Lehtola,  
 Rain Li,  Shaozhi Li,  Tao E. Li,  Yi-Pei Li,  Jiashu Liang,  M. Liebenthal,  
 Hung-Hsuan Lin,  You-Sheng Lin,  Fenglai Liu,  Kuan-Yu Liu,  Xiao Liu,  
 M. Loipersberger,  A. Luenser,  C. Malbon,  Aniket Mandal,  Manisha,  
 A. Manjanath,  P. Manohar,  E. Mansoor,  S. F. Manzer,  Shan-Ping Mao,  
 A. V. Marenich,  T. Markovich,  S. Mason,  F. Matz,  S. A. Maurer,  
 Samuel May,  Alexandra McIsaac,  P. F. McLaughlin,  M. F. S. J. Menger,  
 J.-M. Mewes,  S. A. Mewes,  P. Morgante,  Mohammad Mostafanejad,  
 Madhubani Mukherjee,  J. W. Mullinax,  Quyen Nguyen,  Avik Kumar Ojha,  
 K. J. Oosterbaan,  Eno Paenurk,  Xiaoliang Pan,  G. Paran,  V. Parravicini,  
 Alexander C. Paul,  Suranjan K. Paul,  F. Pavosevic,  Zheng Pei,  S. Prager,  
 E. I. Proynov,  E. Ramos,  B. Rana,  A. E. Rask,  A. Rettig,  R. M. Richard,  
 F. Rob,  E. Rossomme,  T. Scheele,  M. Scheurer,  M. Schneider,  
 P. E. Schneider,  Tim K. Schramm,  N. Sergueev,  S. M. Sharada,  
 Hengyuan Shen,  W. Skomorowski,  D. W. Small,  C. J. Stein,  
 Alistair J. Sterling,  Yingli Su,  Yu-Chuan Su,  E. J. Sundstrom,  
 J. Talbot,  Zhen Tao,  J. Thirman,  Hung-Yi Tsai,  T. Tsuchimochi,  
 N. M. Tubman,  C. Utku,  S. P. Veccham,  O. Vydrov,  Rahel Weiss,  
 J. Wenzel,  Jonathan Wong,  J. Witte,  H. Wu,  Yanze Wu,  A. Yamada,  
 Chou-Hsun Yang,  Kun Yao,  S. Yeganeh,  S. R. Yost,  Qi Yu,  A. Zech,  
 F. Zeller,  Chongxiao Zhao,  Igor Ying Zhang,  Xing Zhang,  Yu Zhang,  
 D. Zuev,  A. Aspuru-Guzik,  A. T. Bell,  N. A. Besley,  K. B. Bravaya,  
 B. R. Brooks,  D. Casanova,  Jeng-Da Chai,  Hsing-Ta Chen,  S. Coriani,  
 C. J. Cramer,  A. E. DePrince, III,  R. A. DiStasio Jr.,  A. Dreuw,  
 B. D. Dunietz,  T. R. Furlani,  W. A. Goddard III,  S. Grimme,  
 S. Hammes-Schiffer,  T. Head-Gordon,  W. J. Hehre,  Chao-Ping Hsu,  
 T.-C. Jagau,  Yousung Jung,  A. Klamt,  Jing Kong,  D. S. Lambrecht,  
 Xiangyuan Li,  WanZhen Liang,  N. J. Mayhall,  C. W. McCurdy,  J. B. Neaton,  
 T. Neudecker,  C. Ochsenfeld,  J. A. Parkhill,  R. Peverati,  
 V. A. Rassolov,  Haisheng Ren,  Yihan Shao,  L. V. Slipchenko,  
 R. P. Steele,  J. E. Subotnik,  A. J. W. Thom,  A. Tkatchenko,  
 D. G. Truhlar,  T. Van Voorhis,  Fan Wang,  T. A. Wesolowski,  K. B. Whaley,  
 H. L. Woodcock III,  P. M. Zimmerman,  S. Faraji,  P. M. W. Gill,  
 M. Head-Gordon,  J. M. Herbert,  A. I. Krylov

 Contributors to earlier versions of Q-Chem not listed above: 
 R. D. Adamson,  B. Austin,  R. Baer,  J. Baker,  G. J. O. Beran,  
 K. Brandhorst,  S. T. Brown,  E. F. C. Byrd,  Arup K. Chakraborty,  
 G. K. L. Chan,  Chun-Min Chang,  Yunqing Chen,  C.-L. Cheng,  
 Siu Hung Chien,  D. M. Chipman,  D. L. Crittenden,  H. Dachsel,  
 R. J. Doerksen,  A. D. Dutoi,  R. G. Edgar,  J. Fosso-Tande,  
 L. Fusti-Molnar,  D. Ghosh,  A. Ghysels,  A. Golubeva-Zadorozhnaya,  
 J. Gonthier,  M. S. Gordon,  S. R. Gwaltney,  G. Hawkins,  J. E. Herr,  
 A. Heyden,  S. Hirata,  E. G. Hohenstein,  G. Kedziora,  F. J. Keil,  
 C. Kelley,  Jihan Kim,  R. A. King,  R. Z. Khaliullin,  P. P. Korambath,  
 W. Kurlancheek,  A. Laurent,  A. M. Lee,  M. S. Lee,  S. V. Levchenko,  
 Ching Yeh Lin,  D. Liotard,  E. Livshits,  R. C. Lochan,  I. Lotan,  
 L. A. Martinez-Martinez,  P. E. Maslen,  N. Nair,  D. P. O'Neill,  
 D. Neuhauser,  E. Neuscamman,  C. M. Oana,  R. Olivares-Amaya,  R. Olson,  
 T. M. Perrine,  B. Peters,  P. A. Pieniazek,  A. Prociuk,  Y. M. Rhee,  
 J. Ritchie,  M. A. Rohrdanz,  E. Rosta,  N. J. Russ,  H. F. Schaefer III,  
 M. W. Schmidt,  N. E. Schultz,  S. Sharma,  N. Shenvi,  C. D. Sherrill,  
 A. C. Simmonett,  A. Sodt,  T. Stein,  D. Stuck,  K. S. Thanthiriwatte,  
 V. Vanovschi,  L. Vogt,  Tao Wang,  A. Warshel,  M. A. Watson,  
 C. F. Williams,  Q. Wu,  X. Xu,  Jun Yang,  W. Zhang,  Yan Zhao

   Please cite Q-Chem as follows:
  "Software for the frontiers of quantum chemistry:
   An overview of developments in the Q-Chem 5 package"
   J. Chem. Phys. 155, 084801 (2021)
   https://doi.org/10.1063/5.0055522 (open access)

 Q-Chem 6.2.2 for Intel X86 EM64T Linux

 Parts of Q-Chem use Armadillo 9.900.5 (Nocturnal Misbehaviour).
 http://arma.sourceforge.net/

 Q-Chem begins on Thu Feb 27 16:29:32 2025  

 Host: 
0

     Scratch files written to /home/kchung25/scratch/qchem5452//
 Nov1724 |scratch|qcdevops|jenkins|workspace|build_RNUM -1
 Processing $rem in /home/kchung25/qchem/config/preferences:
 Processing $rem in /home/kchung25/.qchemrc:

 Q-Chem warning in module libgen/rem_setup.C, line 3433:

 Neither GIA nor STOLL is specified by user. Use STOLL as the default


 Checking the input file for inconsistencies... 	...done.

--------------------------------------------------------------
User input:
--------------------------------------------------------------
$molecule
0 1
--
0 1
C    2.355352   0.003156   0.000061
C    0.937302  -0.501955  -0.000075
O    0.072422   0.620392  -0.000014
H   -0.838375   0.302130   0.000003
H    3.056621  -0.827988   0.000404
H    2.535016   0.612763   0.881313
H    2.535301   0.612274  -0.881468
H    0.761942  -1.121834   0.881890
H    0.762030  -1.121711  -0.882147
--
0 1
O   -2.979734  -0.253539  -0.000003
H   -3.430440   0.123041  -0.759525
H   -3.430290   0.122253   0.759997
$end

$rem
JOBTYPE          eda
EDA2             1
METHOD           wB97M-V
BASIS            def2-TZVPPD
SYMMETRY         false
MEM_TOTAL        50000
MEM_STATIC       10000
THRESH           14
SCF_CONVERGENCE  8
XC_GRID          000099000590
NL_GRID          1
EDA_CLS_DISP     true
FD_MAT_VEC_PROD  FALSE
$end
--------------------------------------------------------------
 ----------------------------------------------------------------
             Standard Nuclear Orientation (Angstroms)
    I     Atom           X                Y                Z
 ----------------------------------------------------------------
    1      C       2.3986999837    -0.0191896547    -0.0000654806
    2      C       0.9761461396     0.4730942859     0.0000950348
    3      O       0.1214373614    -0.6570177003    -0.0000039809
    4      H      -0.7921967301    -0.3469941159    -0.0000054633
    5      H       3.0924342958     0.8182536458    -0.0003805775
    6      H       2.5838581313    -0.6271166443    -0.8813407897
    7      H       2.5841465167    -0.6266902976     0.8814402260
    8      H       0.7951912345     1.0913969494    -0.8818462921
    9      H       0.7952881606     1.0912094956     0.8821907017
   10      O      -2.9384866687     0.1893135408     0.0000298884
   11      H      -3.3857700161    -0.1913495377     0.7595397903
   12      H      -3.3856338738    -0.1905040065    -0.7599821801
 ----------------------------------------------------------------
 Molecular Point Group                 C1    NOp =  1
 Largest Abelian Subgroup              C1    NOp =  1
 Nuclear Repulsion Energy =         125.74962001 hartrees
 There are       18 alpha and       18 beta electrons
 Requested basis set is def2-TZVPPD
 There are 110 shells and 290 basis functions

 Q-Chem warning in module libmdc/get_mega.C, line 167:

 Allowed MEM_STATIC has been capped at MEM_STATIC=8191.
 Reduce the value of MEM_STATIC to silence this warning.


 Total QAlloc Memory Limit  50000 MB
 Mega-Array Size      8007 MB
 MEM_STATIC part      8191 MB


                       Distance Matrix (Angstroms)
             C (  1)   C (  2)   O (  3)   H (  4)   H (  5)   H (  6)
   C (  2)  1.505325
   O (  3)  2.364900  1.416926
   H (  4)  3.207690  1.949252  0.964801
   H (  5)  1.087464  2.144251  3.317114  4.055633
   H (  6)  1.086510  2.138254  2.615562  3.500424  1.767438
   H (  7)  1.086508  2.138214  2.615875  3.500696  1.767435  1.762781
   H (  8)  2.140603  1.092183  2.070880  2.316552  2.475665  2.480447
   H (  9)  2.140629  1.092185  2.070903  2.316637  2.475948  3.043299
   O ( 10)  5.341258  3.924905  3.174809  2.212281  6.063627  5.651519
   H ( 11)  5.836671  4.477115  3.618599  2.706983  6.600296  6.206355
   H ( 12)  5.836552  4.476964  3.618667  2.707022  6.599997  5.986668
             H (  7)   H (  8)   H (  9)   O ( 10)   H ( 11)
   H (  8)  3.043249
   H (  9)  2.480160  1.764037
   O ( 10)  5.651745  3.941042  3.941154
   H ( 11)  5.987010  4.671191  4.375071  0.960116
   H ( 12)  6.206674  4.374634  4.671149  0.960115  1.519522
 
 A cutoff of  1.0D-14 yielded   5584 shell pairs
 There are     38576 function pairs (     47471 Cartesian)
 Smallest overlap matrix eigenvalue = 1.16E-05

 Scale SEOQF with 1.000000e-01/1.000000e-01/1.000000e-01

 Standard Electronic Orientation quadrupole field applied
 Nucleus-field energy     =     0.0000000058 hartrees

 -----------------------------------------------------------------------
  General SCF calculation program by
  Eric Jon Sundstrom, Paul Horn, Yuezhi Mao, Dmitri Zuev, Alec White,
  David Stuck, Shaama M.S., Shane Yost, Joonho Lee, David Small,
  Daniel Levine, Susi Lehtola, Hugh Burton, Evgeny Epifanovsky,
  Bang C. Huynh
 -----------------------------------------------------------------------
================================================================
                 ALMO-EDA with the EDA2 driver                  
================================================================
 The second-generation ALMO-EDA (for DFT):                      
 P. R. Horn, Y. Mao and M. Head-Gordon, PCCP, 18, 23067 (2016)  
 Y. Mao et al. Annu. Rev. Phys. Chem. 72, 641 (2021)            
 Decomposition of the frozen energy:                            
 P. R. Horn, Y. Mao and M. Head-Gordon, JCP, 144, 114107 (2016) 
 FERF model for polarization:                                   
 P. R. Horn and M. Head-Gordon, JCP, 143, 114111 (2015)         
================================================================
 Using eda2 option set 1
 Option set summary: Frozen orbital wavefunction, initial wavefunction decomposition, and nDQ polarization.
--------------------------------
Printing EDA Options
--------------------------------
eda_child_super_basis      0
fragmo_guess_mode          0
child_mp                   1
child_mp_orders            232
cls_elec                   1
cls_disp                   1
scfmi_mode                 1
scfmi_occs                 0
scfmi_virts                0
frz_relax                  0
frz_relax_method           0
dc_pen_start               0
dc_pen_conv                0
dc_pen_increment           0
dc_pen_steps               0
dc_pen_thresh_factor       0
dc_pen_pre_newton_thresh   0
frz_ortho_decomp           1
frz_ortho_decomp_conv      6
plot_mo_ortho_frz          0
frgm_method                2
scfmi_freeze_ss            0
separate_rehyb             0
plot_diff_den              0
eda_nocv                   0
eda_vct_relax              1
disp_free_x                0
disp_free_c                0
eda_bsse                   0
eda_pct_a                  0
eda_covp                   0
eda_pol_a                  0
eda_vct_a                  0
has_sol                    0
print_level                1
--------------------------------
 Attempting to make child job directory: /home/kchung25/scratch/qchem5452//Frg1/
 Attempting to make child job directory: /home/kchung25/scratch/qchem5452//Frg2/
 Creating input file /home/kchung25/scratch/qchem5452/Frg1.input
 using default PutDataFrgm: nothing
 calling putenv with: QCSCRATCH=/home/kchung25/scratch/qchem5452/ 
 Spawning Job For Fragment 0
 Done Job For Fragment 0
 calling putenv with: QCSCRATCH=/home/kchung25/scratch 
 calling putenv with: QCTHREADS=2 
 Creating input file /home/kchung25/scratch/qchem5452/Frg2.input
 using default PutDataFrgm: nothing
 calling putenv with: QCSCRATCH=/home/kchung25/scratch/qchem5452/ 
 Spawning Job For Fragment 1
 Done Job For Fragment 1
 calling putenv with: QCSCRATCH=/home/kchung25/scratch 
 calling putenv with: QCTHREADS=2 
Doing General SCFMI
 Exchange:     0.1500 Hartree-Fock + 1.0000 wB97M-V + LR-HF
 Correlation:  1.0000 wB97M-V
 Using Euler-Maclaurin-Lebedev (99,590) quadrature formula
 Nonlocal Correlation:  VV10 with C = 0.0100 and b = 6.00 and scale = 1.00000
 Grid used for NLC:  SG-1 standard quadrature
performing fock build before subrot guess so that all methods have access
Printing subrot_rss_gen Method Specification:
Occupied Subspace Method is 0
Virtual Subspace Method is 0
Energy of the unrelaxed supersystem initial determinant -231.470949422063
write pseudocanon occs and virts to disk
write pseudocanon orbital energies to disk
Tolerance of ortho_decomp_scf: 1.00e-06
GDM subspace size: 20
Beginning the Orthogonal Decomposition of the Initial Supersystem Wavefunction
    1    -231.4496478088      8.76e-02     ortho_decomp Preconditoned Steepest Descent
    2    -231.4514164555      1.45e-03     ortho_decomp BFGS Step
    3    -231.4514195396      1.02e-04     ortho_decomp BFGS Step
    4    -231.4514195441      2.88e-06     ortho_decomp BFGS Step
    5    -231.4514195441      5.90e-08     ortho_decomp 00000 Convergence criterion met
 Hartree-Fock
 Hartree-Fock
 Hartree-Fock
 Exchange:     0.1500 Hartree-Fock + 1.0000 wB97M-V + LR-HF
 Correlation:  1.0000 wB97M-V
 Using Euler-Maclaurin-Lebedev (99,590) quadrature formula
 Nonlocal Correlation:  VV10 with C = 0.0100 and b = 6.00 and scale = 1.00000
 Grid used for NLC:  SG-1 standard quadrature
 Long-range K will be added via erf
 Coulomb attenuation parameter = 0.3 bohr**(-1)
 Nonlocal correlation = 1.452593482366e-01
Doing General SCFMI
 Exchange:     0.1500 Hartree-Fock + 1.0000 wB97M-V + LR-HF
 Correlation:  1.0000 wB97M-V
 Using Euler-Maclaurin-Lebedev (99,590) quadrature formula
 Nonlocal Correlation:  VV10 with C = 0.0100 and b = 6.00 and scale = 1.00000
 Grid used for NLC:  SG-1 standard quadrature
performing fock build at end of subrot_r(subrot) constructor so that all methods have access
<S^2> of initial wavefunction before polarization iterations 0.0000000000
Beginning iterations for the determination of the polarized wavefunction
Energy prior to optimization (guess energy) = -231.470949422063
Begin Timing: Total SCF Calculation
begin iterations for algorithm: DIIS         
the SCF tolerance is set to 1.00e-08
    1    -231.4709494221      2.30e-04     00000 
    2    -231.4718846593      6.41e-05     00000 
    3    -231.4719615248      2.73e-05     00000 
    4    -231.4719718515      1.41e-05     00000 
    5    -231.4719738643      4.77e-06     00000 
    6    -231.4719742483      1.54e-06     00000 
    7    -231.4719742846      4.31e-07     00000 
    8    -231.4719742883      7.70e-08     00000 
    9    -231.4719742884      3.89e-08     00000 
   10    -231.4719742885      1.46e-08     00000 
   11    -231.4719742885      2.81e-09     00000 Convergence criterion met
write pseudocanon occs and virts to disk
write pseudocanon orbital energies to disk
Timing for Total SCF: 86.00s (wall), 171.36s (cpu)
<S^2> of polarized wavefunction after polarization iterations 0.0000000000
relaxing scfmi constraint to allow all rotations in the entire AO span
Doing General SCFMI
 Exchange:     0.1500 Hartree-Fock + 1.0000 wB97M-V + LR-HF
 Correlation:  1.0000 wB97M-V
 Using Euler-Maclaurin-Lebedev (99,590) quadrature formula
 Nonlocal Correlation:  VV10 with C = 0.0100 and b = 6.00 and scale = 1.00000
 Grid used for NLC:  SG-1 standard quadrature
performing fock build at end of subrot_r(subrot) constructor so that all methods have access
<S^2> of polarized wavefunction before ct-allowed iterations 0.0000000000
Beginning iterations for the determination of the CT-Allowed wavefunction
Energy prior to optimization (guess energy) = -231.471974288466
Begin Timing: Total SCF Calculation
begin iterations for algorithm: DIIS         
the SCF tolerance is set to 1.00e-08
    1    -231.4719742885      1.45e-04     00000 
    2    -231.4730873227      2.21e-05     00000 
    3    -231.4731304644      7.58e-06     00000 
    4    -231.4731320552      4.73e-06     00000 
    5    -231.4731327521      3.22e-07     00000 
    6    -231.4731327598      2.18e-07     00000 
    7    -231.4731327615      4.61e-08     00000 
    8    -231.4731327616      1.44e-08     00000 
    9    -231.4731327616      4.12e-09     00000 Convergence criterion met
write pseudocanon occs and virts to disk
write pseudocanon orbital energies to disk
Timing for Total SCF: 70.00s (wall), 138.92s (cpu)
<S^2> of ct_allowed wavefunction after ct-allowed iterations 0.0000000000

================================
        Results of EDA2         
================================
Basic EDA Quantities
--------------------
Fragment Energies (Ha):
1   -155.0296552853
2    -76.4363864006
--------------------
  E_prp (kJ/mol) = 0.0000
  E_frz (kJ/mol) = -12.8854
  E_pol (kJ/mol) = -2.6908
  E_vct (kJ/mol) = -3.0416
  E_int (kJ/mol) = -18.6178
--------------------


Decomposition of frozen interaction energy
--------------------
  --------------------
  Orthogonal Frozen Decomposition:
  --------------------
     E_elec   (ELEC)   (kJ/mol) = -37.9956
     E_pauli  (PAULI)  (kJ/mol) = 30.6828
     E_disp   (DISP)   (kJ/mol) = -5.5727
  --------------------
  Classical Frozen Decomposition:
  --------------------
     E_cls_elec  (CLS ELEC)  (kJ/mol) = -21.3864
     E_mod_pauli (MOD PAULI) (kJ/mol) = 13.0564 (FRZ - CLS ELEC - CLS DISP)
     E_cls_disp  (CLS DISP)  (kJ/mol) = -4.5554
  --------------------
--------------------

Simplified EDA Summary (kJ/mol)
--------------------
 PREPARATION      0.0000
 FROZEN           -12.8854 (ELEC + PAULI + DISP)
[ELEC + PAULI = -8.3300, DISP = -4.5554]
 POLARIZATION    -2.6908
 CHARGE TRANSFER -3.0416
 TOTAL           -18.6178     (PRP + FRZ + POL + CT)
--------------------
 
 --------------------------------------------------------------
 
                    Orbital Energies (a.u.)
 --------------------------------------------------------------
 
 Alpha MOs
 -- Occupied --
-19.3586 -19.3105 -10.3717 -10.3163  -1.1644  -1.1304  -0.8613  -0.7143
 -0.6620  -0.6141  -0.5650  -0.5273  -0.4962  -0.4744  -0.4566  -0.4503
 -0.4195  -0.3629
 -- Virtual --
  0.0232   0.0559   0.0637   0.0712   0.0815   0.1019   0.1071   0.1207
  0.1306   0.1421   0.1532   0.1606   0.1776   0.1779   0.1871   0.2088
  0.2166   0.2264   0.2287   0.2461   0.2526   0.2644   0.2815   0.2888
  0.2930   0.2944   0.3079   0.3118   0.3169   0.3322   0.3341   0.3346
  0.3518   0.3522   0.3540   0.3654   0.3654   0.3793   0.3835   0.3894
  0.3934   0.4063   0.4159   0.4380   0.4408   0.4509   0.4509   0.4666
  0.4759   0.4818   0.4885   0.4923   0.5193   0.5251   0.5412   0.5617
  0.5712   0.5848   0.6005   0.6147   0.6530   0.6587   0.6610   0.6726
  0.6839   0.6947   0.7170   0.7229   0.7447   0.7588   0.7606   0.7665
  0.7778   0.7781   0.7963   0.8024   0.8308   0.8436   0.8667   0.8954
  0.9115   0.9174   0.9673   0.9734   0.9788   0.9939   1.0434   1.0506
  1.0747   1.0959   1.1356   1.1561   1.1674   1.1788   1.1929   1.2017
  1.2144   1.2481   1.2519   1.2679   1.2823   1.2856   1.2891   1.3494
  1.3596   1.3642   1.3785   1.4164   1.4254   1.4304   1.4867   1.4902
  1.5824   1.6153   1.6355   1.6510   1.6582   1.6875   1.6887   1.7393
  1.7409   1.7846   1.9229   1.9388   1.9688   1.9733   1.9792   2.0614
  2.0994   2.1056   2.1828   2.2043   2.2400   2.2828   2.2832   2.3494
  2.4134   2.4250   2.5336   2.5987   2.7006   2.7308   2.7403   2.7727
  2.8485   2.8618   2.8698   2.9301   2.9510   2.9609   2.9915   3.0007
  3.0424   3.0652   3.0668   3.1369   3.1523   3.2066   3.2165   3.2228
  3.2307   3.2379   3.2502   3.2818   3.2903   3.3155   3.3241   3.3564
  3.3871   3.4101   3.4552   3.4643   3.4655   3.4766   3.5196   3.5502
  3.5649   3.6082   3.6227   3.6788   3.7023   3.7041   3.7524   3.7831
  3.7888   3.8050   3.8931   3.9124   3.9360   3.9849   3.9948   4.0180
  4.0221   4.0582   4.0890   4.1136   4.1255   4.1391   4.1488   4.1761
  4.1816   4.1910   4.2045   4.2110   4.2696   4.2739   4.2819   4.2882
  4.3548   4.3699   4.3998   4.4783   4.4825   4.5068   4.5431   4.5953
  4.6648   4.6857   4.7132   4.7572   4.7751   4.8410   4.8644   4.9345
  4.9565   4.9742   4.9956   5.0150   5.0426   5.1176   5.1985   5.2853
  5.3182   5.4068   5.4208   5.4365   5.4495   5.4830   5.5241   5.5713
  5.6440   5.6583   5.7102   5.7674   5.7985   5.8418   5.9761   6.1238
  6.2617   6.2779   6.5457   6.5799   6.6553   6.6901   6.7002   6.7730
  6.8467   6.8690   6.8815   6.9720   7.0661   7.0730   7.3815   7.5126
  7.6021   7.6282   7.8162   7.8619  23.7733  24.0868  44.3479  44.7976
 --------------------------------------------------------------
 
          Ground-State Mulliken Net Atomic Charges

     Atom                 Charge (a.u.)
  ----------------------------------------
      1 C                    -1.041627
      2 C                    -0.173237
      3 O                    -0.434560
      4 H                     0.217695
      5 H                     0.301146
      6 H                     0.270209
      7 H                     0.270189
      8 H                     0.296209
      9 H                     0.296178
     10 O                    -0.346709
     11 H                     0.172254
     12 H                     0.172255
  ----------------------------------------
  Sum of atomic charges =     0.000000

 -----------------------------------------------------------------
                    Cartesian Multipole Moments
 -----------------------------------------------------------------
    Charge (ESU x 10^10)
                -0.0000
    Dipole Moment (Debye)
         X      -2.4423      Y       0.3680      Z      -0.0007
       Tot       2.4699
    Quadrupole Moments (Debye-Ang)
        XX     -15.3980     XY       4.8707     YY     -29.5087
        XZ       0.0026     YZ      -0.0015     ZZ     -25.0578
    Octopole Moments (Debye-Ang^2)
       XXX     -60.3002    XXY     -15.2235    XYY      -3.1872
       YYY      -0.6894    XXZ      -0.0089    XYZ       0.0051
       YYZ      -0.0003    XZZ     -12.9263    YZZ      -0.7671
       ZZZ      -0.0012
    Hexadecapole Moments (Debye-Ang^3)
      XXXX    -559.3909   XXXY      52.0097   XXYY    -136.4680
      XYYY       2.2677   YYYY     -74.4603   XXXZ       0.0261
      XXYZ      -0.0187   XYYZ      -0.0023   YYYZ      -0.0011
      XXZZ    -100.1049   XYZZ       0.1886   YYZZ     -19.1150
      XZZZ       0.0081   YZZZ      -0.0014   ZZZZ     -42.6160
 -----------------------------------------------------------------
 Total job time:  640.32s(wall), 588.00s(cpu) 
 Thu Feb 27 16:40:13 2025

        *************************************************************
        *                                                           *
        *  Thank you very much for using Q-Chem.  Have a nice day.  *
        *                                                           *
        *************************************************************


