
Running Job 1 of 1 002_ethanol_WA_0.90_almo.inp
qchem 002_ethanol_WA_0.90_almo.inp_4221.0 /home/kchung25/scratch/qchem4221/ 1
/home/kchung25/qchem/exe/qcprog.exe_s 002_ethanol_WA_0.90_almo.inp_4221.0 /home/kchung25/scratch/qchem4221/
                  Welcome to Q-Chem
     A Quantum Leap Into The Future Of Chemistry


 Q-Chem 6.2, Q-Chem, Inc., Pleasanton, CA (2024)

 E. Epifanovsky,  A. T. B. Gilbert,  Xintian Feng,  Joonho Lee,  Yuezhi Mao,  
 N. Mardirossian,  P. Pokhilko,  A. White,  M. Wormit,  M. P. Coons,  
 A. L. Dempwolff,  Zhengting Gan,  D. Hait,  P. R. Horn,  L. D. Jacobson,  
 I. Kaliman,  J. Kussmann,  A. W. Lange,  Ka Un Lao,  D. S. Levine,  Jie Liu,  
 S. C. McKenzie,  A. F. Morrison,  K. D. Nanda,  F. Plasser,  D. R. Rehn,  
 M. L. Vidal,  Zhi-Qiang You,  Ying Zhu,  Huseyin Aksu,  B. Alam,  
 B. Albrecht,  A. Aldossary,  E. Alguire,  J. H. Andersen,  
 J. E. Arias-Martinez,  V. Athavale,  D. Barton,  K. Begam,  A. Behn,  
 N. Bellonzi,  Y. A. Bernard,  E. J. Berquist,  H. Burton,  A. Carreras,  
 K. Carter-Fenk,  Mathew Chow,  Romit Chakraborty,  Chandrima Chakravarty,  
 Junhan Chen,  A. D. Chien,  K. D. Closser,  V. Cofer-Shabica,  L. Cunha,  
 S. Dasgupta,  Jia Deng,  Joseph Dickinson,  M. de Wergifosse,  
 M. Diedenhofen,  Hainam Do,  Wenjie Dou,  S. Ehlert,  Po-Tung Fang,  
 S. Fatehi,  Qingguo Feng,  Jonathan Fetherolf,  T. Friedhoff,  
 Thomas Froitzheim,  Sarai Folkestad,  B. Ganoe,  J. Gayvert,  Qinghui Ge,  
 G. Gidofalvi,  M. Gimferrer,  M. Goldey,  Montgomery Gray,  J. Gomes,  
 C. Gonzalez-Espinoza,  S. Gulania,  A. Gunina,  J. A. Gyamfi,  
 M. W. D. Hanson-Heine,  P. H. P. Harbach,  A. W. Hauser,  M. F. Herbst,  
 M. Hernandez Vera,  M. Hodecker,  Z. C. Holden,  S. Houck,  Xunkun Huang,  
 Kerwin Hui,  B. C. Huynh,  K. Ikeda,  M. Ivanov,  Nayanthara K. Jayadev,  
 Hyunjun Ji,  Zuxin Jin,  Hanjie Jiang,  Subrata Jana,  B. Kaduk,  
 S. Kaehler,  R. Kang,  K. Khistyaev,  Jaehoon Kim,  Yongbin Kim,  
 P. Klunzinger,  Z. Koczor-Benda,  Joong Hoon Koh,  D. Kosenkov,  
 Saikiran Kotaru,  L. Koulias,  T. Kowalczyk,  C. M. Krauter,  K. Kue,  
 A. Kunitsa,  T. Kus,  A. Landau,  K. V. Lawler,  D. Lefrancois,  S. Lehtola,  
 Rain Li,  Shaozhi Li,  Tao E. Li,  Yi-Pei Li,  Jiashu Liang,  M. Liebenthal,  
 Hung-Hsuan Lin,  You-Sheng Lin,  Fenglai Liu,  Kuan-Yu Liu,  Xiao Liu,  
 M. Loipersberger,  A. Luenser,  C. Malbon,  Aniket Mandal,  Manisha,  
 A. Manjanath,  P. Manohar,  E. Mansoor,  S. F. Manzer,  Shan-Ping Mao,  
 A. V. Marenich,  T. Markovich,  S. Mason,  F. Matz,  S. A. Maurer,  
 Samuel May,  Alexandra McIsaac,  P. F. McLaughlin,  M. F. S. J. Menger,  
 J.-M. Mewes,  S. A. Mewes,  P. Morgante,  Mohammad Mostafanejad,  
 Madhubani Mukherjee,  J. W. Mullinax,  Quyen Nguyen,  Avik Kumar Ojha,  
 K. J. Oosterbaan,  Eno Paenurk,  Xiaoliang Pan,  G. Paran,  V. Parravicini,  
 Alexander C. Paul,  Suranjan K. Paul,  F. Pavosevic,  Zheng Pei,  S. Prager,  
 E. I. Proynov,  E. Ramos,  B. Rana,  A. E. Rask,  A. Rettig,  R. M. Richard,  
 F. Rob,  E. Rossomme,  T. Scheele,  M. Scheurer,  M. Schneider,  
 P. E. Schneider,  Tim K. Schramm,  N. Sergueev,  S. M. Sharada,  
 Hengyuan Shen,  W. Skomorowski,  D. W. Small,  C. J. Stein,  
 Alistair J. Sterling,  Yingli Su,  Yu-Chuan Su,  E. J. Sundstrom,  
 J. Talbot,  Zhen Tao,  J. Thirman,  Hung-Yi Tsai,  T. Tsuchimochi,  
 N. M. Tubman,  C. Utku,  S. P. Veccham,  O. Vydrov,  Rahel Weiss,  
 J. Wenzel,  Jonathan Wong,  J. Witte,  H. Wu,  Yanze Wu,  A. Yamada,  
 Chou-Hsun Yang,  Kun Yao,  S. Yeganeh,  S. R. Yost,  Qi Yu,  A. Zech,  
 F. Zeller,  Chongxiao Zhao,  Igor Ying Zhang,  Xing Zhang,  Yu Zhang,  
 D. Zuev,  A. Aspuru-Guzik,  A. T. Bell,  N. A. Besley,  K. B. Bravaya,  
 B. R. Brooks,  D. Casanova,  Jeng-Da Chai,  Hsing-Ta Chen,  S. Coriani,  
 C. J. Cramer,  A. E. DePrince, III,  R. A. DiStasio Jr.,  A. Dreuw,  
 B. D. Dunietz,  T. R. Furlani,  W. A. Goddard III,  S. Grimme,  
 S. Hammes-Schiffer,  T. Head-Gordon,  W. J. Hehre,  Chao-Ping Hsu,  
 T.-C. Jagau,  Yousung Jung,  A. Klamt,  Jing Kong,  D. S. Lambrecht,  
 Xiangyuan Li,  WanZhen Liang,  N. J. Mayhall,  C. W. McCurdy,  J. B. Neaton,  
 T. Neudecker,  C. Ochsenfeld,  J. A. Parkhill,  R. Peverati,  
 V. A. Rassolov,  Haisheng Ren,  Yihan Shao,  L. V. Slipchenko,  
 R. P. Steele,  J. E. Subotnik,  A. J. W. Thom,  A. Tkatchenko,  
 D. G. Truhlar,  T. Van Voorhis,  Fan Wang,  T. A. Wesolowski,  K. B. Whaley,  
 H. L. Woodcock III,  P. M. Zimmerman,  S. Faraji,  P. M. W. Gill,  
 M. Head-Gordon,  J. M. Herbert,  A. I. Krylov

 Contributors to earlier versions of Q-Chem not listed above: 
 R. D. Adamson,  B. Austin,  R. Baer,  J. Baker,  G. J. O. Beran,  
 K. Brandhorst,  S. T. Brown,  E. F. C. Byrd,  Arup K. Chakraborty,  
 G. K. L. Chan,  Chun-Min Chang,  Yunqing Chen,  C.-L. Cheng,  
 Siu Hung Chien,  D. M. Chipman,  D. L. Crittenden,  H. Dachsel,  
 R. J. Doerksen,  A. D. Dutoi,  R. G. Edgar,  J. Fosso-Tande,  
 L. Fusti-Molnar,  D. Ghosh,  A. Ghysels,  A. Golubeva-Zadorozhnaya,  
 J. Gonthier,  M. S. Gordon,  S. R. Gwaltney,  G. Hawkins,  J. E. Herr,  
 A. Heyden,  S. Hirata,  E. G. Hohenstein,  G. Kedziora,  F. J. Keil,  
 C. Kelley,  Jihan Kim,  R. A. King,  R. Z. Khaliullin,  P. P. Korambath,  
 W. Kurlancheek,  A. Laurent,  A. M. Lee,  M. S. Lee,  S. V. Levchenko,  
 Ching Yeh Lin,  D. Liotard,  E. Livshits,  R. C. Lochan,  I. Lotan,  
 L. A. Martinez-Martinez,  P. E. Maslen,  N. Nair,  D. P. O'Neill,  
 D. Neuhauser,  E. Neuscamman,  C. M. Oana,  R. Olivares-Amaya,  R. Olson,  
 T. M. Perrine,  B. Peters,  P. A. Pieniazek,  A. Prociuk,  Y. M. Rhee,  
 J. Ritchie,  M. A. Rohrdanz,  E. Rosta,  N. J. Russ,  H. F. Schaefer III,  
 M. W. Schmidt,  N. E. Schultz,  S. Sharma,  N. Shenvi,  C. D. Sherrill,  
 A. C. Simmonett,  A. Sodt,  T. Stein,  D. Stuck,  K. S. Thanthiriwatte,  
 V. Vanovschi,  L. Vogt,  Tao Wang,  A. Warshel,  M. A. Watson,  
 C. F. Williams,  Q. Wu,  X. Xu,  Jun Yang,  W. Zhang,  Yan Zhao

   Please cite Q-Chem as follows:
  "Software for the frontiers of quantum chemistry:
   An overview of developments in the Q-Chem 5 package"
   J. Chem. Phys. 155, 084801 (2021)
   https://doi.org/10.1063/5.0055522 (open access)

 Q-Chem 6.2.2 for Intel X86 EM64T Linux

 Parts of Q-Chem use Armadillo 9.900.5 (Nocturnal Misbehaviour).
 http://arma.sourceforge.net/

 Q-Chem begins on Thu Feb 27 15:25:25 2025  

 Host: 
0

     Scratch files written to /home/kchung25/scratch/qchem4221//
 Nov1724 |scratch|qcdevops|jenkins|workspace|build_RNUM -1
 Processing $rem in /home/kchung25/qchem/config/preferences:
 Processing $rem in /home/kchung25/.qchemrc:

 Q-Chem warning in module libgen/rem_setup.C, line 3433:

 Neither GIA nor STOLL is specified by user. Use STOLL as the default


 Checking the input file for inconsistencies... 	...done.

--------------------------------------------------------------
User input:
--------------------------------------------------------------
$molecule
0 1
--
0 1
C    2.355352   0.003156   0.000061
C    0.937302  -0.501955  -0.000075
O    0.072422   0.620392  -0.000014
H   -0.838375   0.302130   0.000003
H    3.056621  -0.827988   0.000404
H    2.535016   0.612763   0.881313
H    2.535301   0.612274  -0.881468
H    0.761942  -1.121834   0.881890
H    0.762030  -1.121711  -0.882147
--
0 1
O   -2.424796  -0.094643  -0.000005
H   -2.875502   0.281937  -0.759527
H   -2.875352   0.281149   0.759995
$end

$rem
JOBTYPE          eda
EDA2             1
METHOD           wB97M-V
BASIS            def2-TZVPPD
SYMMETRY         false
MEM_TOTAL        50000
MEM_STATIC       10000
THRESH           14
SCF_CONVERGENCE  8
XC_GRID          000099000590
NL_GRID          1
EDA_CLS_DISP     true
FD_MAT_VEC_PROD  FALSE
$end
--------------------------------------------------------------
 ----------------------------------------------------------------
             Standard Nuclear Orientation (Angstroms)
    I     Atom           X                Y                Z
 ----------------------------------------------------------------
    1      C       2.2433105966    -0.0660186704    -0.0000642596
    2      C       0.8415346754     0.4826407733     0.0000932619
    3      O      -0.0575909007    -0.6124635124     0.0000017362
    4      H      -0.9581256221    -0.2662279109    -0.0000016289
    5      H       2.9699108588     0.7430738045    -0.0003849158
    6      H       2.4040613085    -0.6808559693    -0.8813356363
    7      H       2.4043671999    -0.6804300067     0.8814453766
    8      H       0.6853971815     1.1076662829    -0.8818520656
    9      H       0.6854872725     1.1074865822     0.8821849294
   10      O      -2.5315377214     0.1793444938     0.0000253116
   11      H      -2.9936550036    -0.1831613974     0.7595377602
   12      H      -2.9934858508    -0.1823318541    -0.7599842156
 ----------------------------------------------------------------
 Molecular Point Group                 C1    NOp =  1
 Largest Abelian Subgroup              C1    NOp =  1
 Nuclear Repulsion Energy =         131.82782387 hartrees
 There are       18 alpha and       18 beta electrons
 Requested basis set is def2-TZVPPD
 There are 110 shells and 290 basis functions

 Q-Chem warning in module libmdc/get_mega.C, line 167:

 Allowed MEM_STATIC has been capped at MEM_STATIC=8191.
 Reduce the value of MEM_STATIC to silence this warning.


 Total QAlloc Memory Limit  50000 MB
 Mega-Array Size      8007 MB
 MEM_STATIC part      8191 MB


                       Distance Matrix (Angstroms)
             C (  1)   C (  2)   O (  3)   H (  4)   H (  5)   H (  6)
   C (  2)  1.505325
   O (  3)  2.364900  1.416926
   H (  4)  3.207690  1.949252  0.964801
   H (  5)  1.087464  2.144251  3.317114  4.055633
   H (  6)  1.086510  2.138254  2.615562  3.500424  1.767438
   H (  7)  1.086508  2.138214  2.615875  3.500696  1.767435  1.762781
   H (  8)  2.140603  1.092183  2.070880  2.316552  2.475665  2.480447
   H (  9)  2.140629  1.092185  2.070903  2.316637  2.475948  3.043299
   O ( 10)  4.781148  3.386681  2.597571  1.635286  5.530256  5.086932
   H ( 11)  5.293064  3.965946  3.062951  2.174208  6.082722  5.663524
   H ( 12)  5.292924  3.965765  3.063017  2.174236  6.082390  5.421879
             H (  7)   H (  8)   H (  9)   O ( 10)   H ( 11)
   H (  8)  3.043249
   H (  9)  2.480160  1.764037
   O ( 10)  5.087167  3.462392  3.462500
   H ( 11)  5.422249  4.230345  3.900885  0.960116
   H ( 12)  5.663851  3.900401  4.230271  0.960115  1.519522
 
 A cutoff of  1.0D-14 yielded   5734 shell pairs
 There are     39854 function pairs (     49102 Cartesian)
 Smallest overlap matrix eigenvalue = 1.11E-05

 Scale SEOQF with 1.000000e-01/1.000000e-01/1.000000e-01

 Standard Electronic Orientation quadrupole field applied
 Nucleus-field energy     =     0.0000000047 hartrees

 -----------------------------------------------------------------------
  General SCF calculation program by
  Eric Jon Sundstrom, Paul Horn, Yuezhi Mao, Dmitri Zuev, Alec White,
  David Stuck, Shaama M.S., Shane Yost, Joonho Lee, David Small,
  Daniel Levine, Susi Lehtola, Hugh Burton, Evgeny Epifanovsky,
  Bang C. Huynh
 -----------------------------------------------------------------------
================================================================
                 ALMO-EDA with the EDA2 driver                  
================================================================
 The second-generation ALMO-EDA (for DFT):                      
 P. R. Horn, Y. Mao and M. Head-Gordon, PCCP, 18, 23067 (2016)  
 Y. Mao et al. Annu. Rev. Phys. Chem. 72, 641 (2021)            
 Decomposition of the frozen energy:                            
 P. R. Horn, Y. Mao and M. Head-Gordon, JCP, 144, 114107 (2016) 
 FERF model for polarization:                                   
 P. R. Horn and M. Head-Gordon, JCP, 143, 114111 (2015)         
================================================================
 Using eda2 option set 1
 Option set summary: Frozen orbital wavefunction, initial wavefunction decomposition, and nDQ polarization.
--------------------------------
Printing EDA Options
--------------------------------
eda_child_super_basis      0
fragmo_guess_mode          0
child_mp                   1
child_mp_orders            232
cls_elec                   1
cls_disp                   1
scfmi_mode                 1
scfmi_occs                 0
scfmi_virts                0
frz_relax                  0
frz_relax_method           0
dc_pen_start               0
dc_pen_conv                0
dc_pen_increment           0
dc_pen_steps               0
dc_pen_thresh_factor       0
dc_pen_pre_newton_thresh   0
frz_ortho_decomp           1
frz_ortho_decomp_conv      6
plot_mo_ortho_frz          0
frgm_method                2
scfmi_freeze_ss            0
separate_rehyb             0
plot_diff_den              0
eda_nocv                   0
eda_vct_relax              1
disp_free_x                0
disp_free_c                0
eda_bsse                   0
eda_pct_a                  0
eda_covp                   0
eda_pol_a                  0
eda_vct_a                  0
has_sol                    0
print_level                1
--------------------------------
 Attempting to make child job directory: /home/kchung25/scratch/qchem4221//Frg1/
 Attempting to make child job directory: /home/kchung25/scratch/qchem4221//Frg2/
 Creating input file /home/kchung25/scratch/qchem4221/Frg1.input
 using default PutDataFrgm: nothing
 calling putenv with: QCSCRATCH=/home/kchung25/scratch/qchem4221/ 
 Spawning Job For Fragment 0
 Done Job For Fragment 0
 calling putenv with: QCSCRATCH=/home/kchung25/scratch 
 calling putenv with: QCTHREADS=2 
 Creating input file /home/kchung25/scratch/qchem4221/Frg2.input
 using default PutDataFrgm: nothing
 calling putenv with: QCSCRATCH=/home/kchung25/scratch/qchem4221/ 
 Spawning Job For Fragment 1
 Done Job For Fragment 1
 calling putenv with: QCSCRATCH=/home/kchung25/scratch 
 calling putenv with: QCTHREADS=2 
Doing General SCFMI
 Exchange:     0.1500 Hartree-Fock + 1.0000 wB97M-V + LR-HF
 Correlation:  1.0000 wB97M-V
 Using Euler-Maclaurin-Lebedev (99,590) quadrature formula
 Nonlocal Correlation:  VV10 with C = 0.0100 and b = 6.00 and scale = 1.00000
 Grid used for NLC:  SG-1 standard quadrature
performing fock build before subrot guess so that all methods have access
Printing subrot_rss_gen Method Specification:
Occupied Subspace Method is 0
Virtual Subspace Method is 0
Energy of the unrelaxed supersystem initial determinant -231.457850562895
write pseudocanon occs and virts to disk
write pseudocanon orbital energies to disk
Tolerance of ortho_decomp_scf: 1.00e-06
GDM subspace size: 20
Beginning the Orthogonal Decomposition of the Initial Supersystem Wavefunction
    1    -231.3811140969      2.27e-01     ortho_decomp Preconditoned Steepest Descent
    2    -231.3926976930      4.19e-03     ortho_decomp BFGS Step
    3    -231.3927225076      3.38e-04     ortho_decomp BFGS Step
    4    -231.3927225596      1.12e-05     ortho_decomp BFGS Step
    5    -231.3927225597      2.52e-07     ortho_decomp 00000 Convergence criterion met
 Hartree-Fock
 Hartree-Fock
 Hartree-Fock
 Exchange:     0.1500 Hartree-Fock + 1.0000 wB97M-V + LR-HF
 Correlation:  1.0000 wB97M-V
 Using Euler-Maclaurin-Lebedev (99,590) quadrature formula
 Nonlocal Correlation:  VV10 with C = 0.0100 and b = 6.00 and scale = 1.00000
 Grid used for NLC:  SG-1 standard quadrature
 Long-range K will be added via erf
 Coulomb attenuation parameter = 0.3 bohr**(-1)
 Nonlocal correlation = 1.444631852781e-01
Doing General SCFMI
 Exchange:     0.1500 Hartree-Fock + 1.0000 wB97M-V + LR-HF
 Correlation:  1.0000 wB97M-V
 Using Euler-Maclaurin-Lebedev (99,590) quadrature formula
 Nonlocal Correlation:  VV10 with C = 0.0100 and b = 6.00 and scale = 1.00000
 Grid used for NLC:  SG-1 standard quadrature
performing fock build at end of subrot_r(subrot) constructor so that all methods have access
<S^2> of initial wavefunction before polarization iterations 0.0000000000
Beginning iterations for the determination of the polarized wavefunction
Energy prior to optimization (guess energy) = -231.457850562895
Begin Timing: Total SCF Calculation
begin iterations for algorithm: DIIS         
the SCF tolerance is set to 1.00e-08
    1    -231.4578505629      5.36e-04     00000 
    2    -231.4620155668      1.76e-04     00000 
    3    -231.4623814701      1.20e-04     00000 
    4    -231.4625041504      3.74e-05     00000 
    5    -231.4625308951      1.32e-05     00000 
    6    -231.4625362639      6.54e-06     00000 
    7    -231.4625369138      2.25e-06     00000 
    8    -231.4625370101      6.18e-07     00000 
    9    -231.4625370141      1.84e-07     00000 
   10    -231.4625370147      4.66e-08     00000 
   11    -231.4625370148      1.60e-08     00000 
   12    -231.4625370148      5.43e-09     00000 Convergence criterion met
write pseudocanon occs and virts to disk
write pseudocanon orbital energies to disk
Timing for Total SCF: 99.00s (wall), 197.76s (cpu)
<S^2> of polarized wavefunction after polarization iterations 0.0000000000
relaxing scfmi constraint to allow all rotations in the entire AO span
Doing General SCFMI
 Exchange:     0.1500 Hartree-Fock + 1.0000 wB97M-V + LR-HF
 Correlation:  1.0000 wB97M-V
 Using Euler-Maclaurin-Lebedev (99,590) quadrature formula
 Nonlocal Correlation:  VV10 with C = 0.0100 and b = 6.00 and scale = 1.00000
 Grid used for NLC:  SG-1 standard quadrature
performing fock build at end of subrot_r(subrot) constructor so that all methods have access
<S^2> of polarized wavefunction before ct-allowed iterations 0.0000000000
Beginning iterations for the determination of the CT-Allowed wavefunction
Energy prior to optimization (guess energy) = -231.462537014759
Begin Timing: Total SCF Calculation
begin iterations for algorithm: DIIS         
the SCF tolerance is set to 1.00e-08
    1    -231.4625370148      4.16e-04     00000 
    2    -231.4702599833      6.43e-05     00000 
    3    -231.4705121075      3.30e-05     00000 
    4    -231.4705399517      1.05e-05     00000 
    5    -231.4705438751      1.67e-06     00000 
    6    -231.4705439782      7.37e-07     00000 
    7    -231.4705439969      2.30e-07     00000 
    8    -231.4705439991      2.74e-08     00000 
    9    -231.4705439992      1.35e-08     00000 
   10    -231.4705439992      2.20e-09     00000 Convergence criterion met
write pseudocanon occs and virts to disk
write pseudocanon orbital energies to disk
Timing for Total SCF: 81.00s (wall), 162.72s (cpu)
<S^2> of ct_allowed wavefunction after ct-allowed iterations 0.0000000000

================================
        Results of EDA2         
================================
Basic EDA Quantities
--------------------
Fragment Energies (Ha):
1   -155.0296555242
2    -76.4363863491
--------------------
  E_prp (kJ/mol) = 0.0000
  E_frz (kJ/mol) = 21.5065
  E_pol (kJ/mol) = -12.3044
  E_vct (kJ/mol) = -21.0226
  E_int (kJ/mol) = -11.8205
--------------------


Decomposition of frozen interaction energy
--------------------
  --------------------
  Orthogonal Frozen Decomposition:
  --------------------
     E_elec   (ELEC)   (kJ/mol) = -125.9383
     E_pauli  (PAULI)  (kJ/mol) = 161.4568
     E_disp   (DISP)   (kJ/mol) = -14.0120
  --------------------
  Classical Frozen Decomposition:
  --------------------
     E_cls_elec  (CLS ELEC)  (kJ/mol) = -66.7271
     E_mod_pauli (MOD PAULI) (kJ/mol) = 101.1842 (FRZ - CLS ELEC - CLS DISP)
     E_cls_disp  (CLS DISP)  (kJ/mol) = -12.9506
  --------------------
--------------------

Simplified EDA Summary (kJ/mol)
--------------------
 PREPARATION      0.0000
 FROZEN           21.5065 (ELEC + PAULI + DISP)
[ELEC + PAULI = 34.4571, DISP = -12.9506]
 POLARIZATION    -12.3044
 CHARGE TRANSFER -21.0226
 TOTAL           -11.8205     (PRP + FRZ + POL + CT)
--------------------
 
 --------------------------------------------------------------
 
                    Orbital Energies (a.u.)
 --------------------------------------------------------------
 
 Alpha MOs
 -- Occupied --
-19.3726 -19.2899 -10.3636 -10.3102  -1.1838  -1.1148  -0.8540  -0.7073
 -0.6778  -0.6179  -0.5574  -0.5410  -0.4858  -0.4804  -0.4530  -0.4494
 -0.4029  -0.3507
 -- Virtual --
  0.0194   0.0590   0.0624   0.0704   0.0843   0.1053   0.1091   0.1239
  0.1327   0.1421   0.1604   0.1665   0.1760   0.1783   0.1997   0.2121
  0.2234   0.2359   0.2406   0.2514   0.2630   0.2722   0.2810   0.2944
  0.3005   0.3057   0.3169   0.3174   0.3223   0.3366   0.3374   0.3421
  0.3540   0.3571   0.3642   0.3704   0.3712   0.3856   0.3908   0.3976
  0.4146   0.4177   0.4332   0.4444   0.4455   0.4547   0.4589   0.4697
  0.4846   0.4897   0.4936   0.5076   0.5232   0.5363   0.5541   0.5654
  0.5845   0.5978   0.6105   0.6276   0.6576   0.6821   0.6853   0.6943
  0.6958   0.6975   0.7212   0.7299   0.7558   0.7620   0.7693   0.7722
  0.7848   0.7933   0.8078   0.8167   0.8448   0.8585   0.8928   0.9029
  0.9238   0.9375   0.9771   0.9863   0.9961   1.0011   1.0580   1.0740
  1.0975   1.1518   1.1734   1.1908   1.1929   1.2065   1.2218   1.2352
  1.2420   1.2668   1.2778   1.2789   1.3020   1.3206   1.3389   1.3723
  1.3729   1.3791   1.3999   1.4465   1.4538   1.4574   1.4988   1.5129
  1.5986   1.6330   1.6420   1.6678   1.6743   1.6943   1.7009   1.7154
  1.7495   1.8016   1.9299   1.9343   1.9454   2.0265   2.0618   2.0989
  2.1487   2.1655   2.1987   2.2507   2.2981   2.3170   2.3314   2.3684
  2.4233   2.4557   2.5572   2.6152   2.7184   2.7435   2.7612   2.7907
  2.8554   2.8703   2.9107   2.9386   2.9705   3.0035   3.0158   3.0251
  3.0659   3.0751   3.0952   3.1408   3.1648   3.2152   3.2220   3.2292
  3.2435   3.2553   3.2618   3.3229   3.3269   3.3498   3.3796   3.3884
  3.4198   3.4366   3.4602   3.4681   3.4858   3.4912   3.5469   3.5730
  3.5757   3.6137   3.6353   3.6790   3.7115   3.7137   3.7877   3.7954
  3.8139   3.8785   3.9155   3.9219   3.9976   4.0144   4.0232   4.0370
  4.0777   4.0798   4.0993   4.1324   4.1383   4.1473   4.1893   4.1926
  4.2201   4.2287   4.2429   4.2621   4.2783   4.2839   4.3109   4.3708
  4.3934   4.3937   4.4669   4.4922   4.5027   4.5294   4.5564   4.5924
  4.6762   4.7242   4.7348   4.7879   4.7919   4.8502   4.8879   4.9435
  4.9776   4.9825   5.0239   5.0364   5.0868   5.1280   5.2599   5.2962
  5.3284   5.4030   5.4270   5.4450   5.4609   5.4959   5.5310   5.5830
  5.6568   5.6622   5.7711   5.8048   5.8308   5.8551   5.9935   6.1415
  6.2867   6.3019   6.5167   6.5552   6.6416   6.7301   6.7687   6.8550
  6.9062   6.9290   6.9476   7.0119   7.0893   7.2832   7.4242   7.5483
  7.6358   7.7486   7.8366   8.0019  23.7988  24.0955  44.4134  44.9317
 --------------------------------------------------------------
 
          Ground-State Mulliken Net Atomic Charges

     Atom                 Charge (a.u.)
  ----------------------------------------
      1 C                    -1.080741
      2 C                    -0.173117
      3 O                    -0.466158
      4 H                     0.247334
      5 H                     0.305343
      6 H                     0.273684
      7 H                     0.273665
      8 H                     0.290152
      9 H                     0.290122
     10 O                    -0.309425
     11 H                     0.174570
     12 H                     0.174570
  ----------------------------------------
  Sum of atomic charges =     0.000000

 -----------------------------------------------------------------
                    Cartesian Multipole Moments
 -----------------------------------------------------------------
    Charge (ESU x 10^10)
                 0.0000
    Dipole Moment (Debye)
         X      -2.9983      Y       0.4802      Z      -0.0007
       Tot       3.0365
    Quadrupole Moments (Debye-Ang)
        XX     -15.4220     XY       3.8177     YY     -29.5875
        XZ       0.0022     YZ      -0.0014     ZZ     -25.0872
    Octopole Moments (Debye-Ang^2)
       XXX     -55.9386    XXY     -11.6692    XYY      -3.2818
       YYY      -0.6509    XXZ      -0.0066    XYZ       0.0044
       YYZ      -0.0003    XZZ     -12.1310    YZZ      -0.7200
       ZZZ      -0.0013
    Hexadecapole Moments (Debye-Ang^3)
      XXXX    -466.6381   XXXY      36.1322   XXYY    -112.0779
      XYYY       1.8163   YYYY     -73.8282   XXXZ       0.0160
      XXYZ      -0.0147   XYYZ      -0.0020   YYYZ      -0.0010
      XXZZ     -83.0761   XYZZ       0.0682   YYZZ     -19.0288
      XZZZ       0.0074   YZZZ      -0.0014   ZZZZ     -42.9386
 -----------------------------------------------------------------
 Total job time:  673.94s(wall), 651.82s(cpu) 
 Thu Feb 27 15:36:39 2025

        *************************************************************
        *                                                           *
        *  Thank you very much for using Q-Chem.  Have a nice day.  *
        *                                                           *
        *************************************************************


