
Running Job 1 of 1 002_ethanol_WA_1.00_almo.inp
qchem 002_ethanol_WA_1.00_almo.inp_4412.0 /home/kchung25/scratch/qchem4412/ 1
/home/kchung25/qchem/exe/qcprog.exe_s 002_ethanol_WA_1.00_almo.inp_4412.0 /home/kchung25/scratch/qchem4412/
                  Welcome to Q-Chem
     A Quantum Leap Into The Future Of Chemistry


 Q-Chem 6.2, Q-Chem, Inc., Pleasanton, CA (2024)

 E. Epifanovsky,  A. T. B. Gilbert,  Xintian Feng,  Joonho Lee,  Yuezhi Mao,  
 N. Mardirossian,  P. Pokhilko,  A. White,  M. Wormit,  M. P. Coons,  
 A. L. Dempwolff,  Zhengting Gan,  D. Hait,  P. R. Horn,  L. D. Jacobson,  
 I. Kaliman,  J. Kussmann,  A. W. Lange,  Ka Un Lao,  D. S. Levine,  Jie Liu,  
 S. C. McKenzie,  A. F. Morrison,  K. D. Nanda,  F. Plasser,  D. R. Rehn,  
 M. L. Vidal,  Zhi-Qiang You,  Ying Zhu,  Huseyin Aksu,  B. Alam,  
 B. Albrecht,  A. Aldossary,  E. Alguire,  J. H. Andersen,  
 J. E. Arias-Martinez,  V. Athavale,  D. Barton,  K. Begam,  A. Behn,  
 N. Bellonzi,  Y. A. Bernard,  E. J. Berquist,  H. Burton,  A. Carreras,  
 K. Carter-Fenk,  Mathew Chow,  Romit Chakraborty,  Chandrima Chakravarty,  
 Junhan Chen,  A. D. Chien,  K. D. Closser,  V. Cofer-Shabica,  L. Cunha,  
 S. Dasgupta,  Jia Deng,  Joseph Dickinson,  M. de Wergifosse,  
 M. Diedenhofen,  Hainam Do,  Wenjie Dou,  S. Ehlert,  Po-Tung Fang,  
 S. Fatehi,  Qingguo Feng,  Jonathan Fetherolf,  T. Friedhoff,  
 Thomas Froitzheim,  Sarai Folkestad,  B. Ganoe,  J. Gayvert,  Qinghui Ge,  
 G. Gidofalvi,  M. Gimferrer,  M. Goldey,  Montgomery Gray,  J. Gomes,  
 C. Gonzalez-Espinoza,  S. Gulania,  A. Gunina,  J. A. Gyamfi,  
 M. W. D. Hanson-Heine,  P. H. P. Harbach,  A. W. Hauser,  M. F. Herbst,  
 M. Hernandez Vera,  M. Hodecker,  Z. C. Holden,  S. Houck,  Xunkun Huang,  
 Kerwin Hui,  B. C. Huynh,  K. Ikeda,  M. Ivanov,  Nayanthara K. Jayadev,  
 Hyunjun Ji,  Zuxin Jin,  Hanjie Jiang,  Subrata Jana,  B. Kaduk,  
 S. Kaehler,  R. Kang,  K. Khistyaev,  Jaehoon Kim,  Yongbin Kim,  
 P. Klunzinger,  Z. Koczor-Benda,  Joong Hoon Koh,  D. Kosenkov,  
 Saikiran Kotaru,  L. Koulias,  T. Kowalczyk,  C. M. Krauter,  K. Kue,  
 A. Kunitsa,  T. Kus,  A. Landau,  K. V. Lawler,  D. Lefrancois,  S. Lehtola,  
 Rain Li,  Shaozhi Li,  Tao E. Li,  Yi-Pei Li,  Jiashu Liang,  M. Liebenthal,  
 Hung-Hsuan Lin,  You-Sheng Lin,  Fenglai Liu,  Kuan-Yu Liu,  Xiao Liu,  
 M. Loipersberger,  A. Luenser,  C. Malbon,  Aniket Mandal,  Manisha,  
 A. Manjanath,  P. Manohar,  E. Mansoor,  S. F. Manzer,  Shan-Ping Mao,  
 A. V. Marenich,  T. Markovich,  S. Mason,  F. Matz,  S. A. Maurer,  
 Samuel May,  Alexandra McIsaac,  P. F. McLaughlin,  M. F. S. J. Menger,  
 J.-M. Mewes,  S. A. Mewes,  P. Morgante,  Mohammad Mostafanejad,  
 Madhubani Mukherjee,  J. W. Mullinax,  Quyen Nguyen,  Avik Kumar Ojha,  
 K. J. Oosterbaan,  Eno Paenurk,  Xiaoliang Pan,  G. Paran,  V. Parravicini,  
 Alexander C. Paul,  Suranjan K. Paul,  F. Pavosevic,  Zheng Pei,  S. Prager,  
 E. I. Proynov,  E. Ramos,  B. Rana,  A. E. Rask,  A. Rettig,  R. M. Richard,  
 F. Rob,  E. Rossomme,  T. Scheele,  M. Scheurer,  M. Schneider,  
 P. E. Schneider,  Tim K. Schramm,  N. Sergueev,  S. M. Sharada,  
 Hengyuan Shen,  W. Skomorowski,  D. W. Small,  C. J. Stein,  
 Alistair J. Sterling,  Yingli Su,  Yu-Chuan Su,  E. J. Sundstrom,  
 J. Talbot,  Zhen Tao,  J. Thirman,  Hung-Yi Tsai,  T. Tsuchimochi,  
 N. M. Tubman,  C. Utku,  S. P. Veccham,  O. Vydrov,  Rahel Weiss,  
 J. Wenzel,  Jonathan Wong,  J. Witte,  H. Wu,  Yanze Wu,  A. Yamada,  
 Chou-Hsun Yang,  Kun Yao,  S. Yeganeh,  S. R. Yost,  Qi Yu,  A. Zech,  
 F. Zeller,  Chongxiao Zhao,  Igor Ying Zhang,  Xing Zhang,  Yu Zhang,  
 D. Zuev,  A. Aspuru-Guzik,  A. T. Bell,  N. A. Besley,  K. B. Bravaya,  
 B. R. Brooks,  D. Casanova,  Jeng-Da Chai,  Hsing-Ta Chen,  S. Coriani,  
 C. J. Cramer,  A. E. DePrince, III,  R. A. DiStasio Jr.,  A. Dreuw,  
 B. D. Dunietz,  T. R. Furlani,  W. A. Goddard III,  S. Grimme,  
 S. Hammes-Schiffer,  T. Head-Gordon,  W. J. Hehre,  Chao-Ping Hsu,  
 T.-C. Jagau,  Yousung Jung,  A. Klamt,  Jing Kong,  D. S. Lambrecht,  
 Xiangyuan Li,  WanZhen Liang,  N. J. Mayhall,  C. W. McCurdy,  J. B. Neaton,  
 T. Neudecker,  C. Ochsenfeld,  J. A. Parkhill,  R. Peverati,  
 V. A. Rassolov,  Haisheng Ren,  Yihan Shao,  L. V. Slipchenko,  
 R. P. Steele,  J. E. Subotnik,  A. J. W. Thom,  A. Tkatchenko,  
 D. G. Truhlar,  T. Van Voorhis,  Fan Wang,  T. A. Wesolowski,  K. B. Whaley,  
 H. L. Woodcock III,  P. M. Zimmerman,  S. Faraji,  P. M. W. Gill,  
 M. Head-Gordon,  J. M. Herbert,  A. I. Krylov

 Contributors to earlier versions of Q-Chem not listed above: 
 R. D. Adamson,  B. Austin,  R. Baer,  J. Baker,  G. J. O. Beran,  
 K. Brandhorst,  S. T. Brown,  E. F. C. Byrd,  Arup K. Chakraborty,  
 G. K. L. Chan,  Chun-Min Chang,  Yunqing Chen,  C.-L. Cheng,  
 Siu Hung Chien,  D. M. Chipman,  D. L. Crittenden,  H. Dachsel,  
 R. J. Doerksen,  A. D. Dutoi,  R. G. Edgar,  J. Fosso-Tande,  
 L. Fusti-Molnar,  D. Ghosh,  A. Ghysels,  A. Golubeva-Zadorozhnaya,  
 J. Gonthier,  M. S. Gordon,  S. R. Gwaltney,  G. Hawkins,  J. E. Herr,  
 A. Heyden,  S. Hirata,  E. G. Hohenstein,  G. Kedziora,  F. J. Keil,  
 C. Kelley,  Jihan Kim,  R. A. King,  R. Z. Khaliullin,  P. P. Korambath,  
 W. Kurlancheek,  A. Laurent,  A. M. Lee,  M. S. Lee,  S. V. Levchenko,  
 Ching Yeh Lin,  D. Liotard,  E. Livshits,  R. C. Lochan,  I. Lotan,  
 L. A. Martinez-Martinez,  P. E. Maslen,  N. Nair,  D. P. O'Neill,  
 D. Neuhauser,  E. Neuscamman,  C. M. Oana,  R. Olivares-Amaya,  R. Olson,  
 T. M. Perrine,  B. Peters,  P. A. Pieniazek,  A. Prociuk,  Y. M. Rhee,  
 J. Ritchie,  M. A. Rohrdanz,  E. Rosta,  N. J. Russ,  H. F. Schaefer III,  
 M. W. Schmidt,  N. E. Schultz,  S. Sharma,  N. Shenvi,  C. D. Sherrill,  
 A. C. Simmonett,  A. Sodt,  T. Stein,  D. Stuck,  K. S. Thanthiriwatte,  
 V. Vanovschi,  L. Vogt,  Tao Wang,  A. Warshel,  M. A. Watson,  
 C. F. Williams,  Q. Wu,  X. Xu,  Jun Yang,  W. Zhang,  Yan Zhao

   Please cite Q-Chem as follows:
  "Software for the frontiers of quantum chemistry:
   An overview of developments in the Q-Chem 5 package"
   J. Chem. Phys. 155, 084801 (2021)
   https://doi.org/10.1063/5.0055522 (open access)

 Q-Chem 6.2.2 for Intel X86 EM64T Linux

 Parts of Q-Chem use Armadillo 9.900.5 (Nocturnal Misbehaviour).
 http://arma.sourceforge.net/

 Q-Chem begins on Thu Feb 27 15:47:42 2025  

 Host: 
0

     Scratch files written to /home/kchung25/scratch/qchem4412//
 Nov1724 |scratch|qcdevops|jenkins|workspace|build_RNUM -1
 Processing $rem in /home/kchung25/qchem/config/preferences:
 Processing $rem in /home/kchung25/.qchemrc:

 Q-Chem warning in module libgen/rem_setup.C, line 3433:

 Neither GIA nor STOLL is specified by user. Use STOLL as the default


 Checking the input file for inconsistencies... 	...done.

--------------------------------------------------------------
User input:
--------------------------------------------------------------
$molecule
0 1
--
0 1
C    2.355352   0.003156   0.000061
C    0.937302  -0.501955  -0.000075
O    0.072422   0.620392  -0.000014
H   -0.838375   0.302130   0.000003
H    3.056621  -0.827988   0.000404
H    2.535016   0.612763   0.881313
H    2.535301   0.612274  -0.881468
H    0.761942  -1.121834   0.881890
H    0.762030  -1.121711  -0.882147
--
0 1
O   -2.702265  -0.174091  -0.000004
H   -3.152971   0.202489  -0.759526
H   -3.152821   0.201701   0.759996
$end

$rem
JOBTYPE          eda
EDA2             1
METHOD           wB97M-V
BASIS            def2-TZVPPD
SYMMETRY         false
MEM_TOTAL        50000
MEM_STATIC       10000
THRESH           14
SCF_CONVERGENCE  8
XC_GRID          000099000590
NL_GRID          1
EDA_CLS_DISP     true
FD_MAT_VEC_PROD  FALSE
$end
--------------------------------------------------------------
 ----------------------------------------------------------------
             Standard Nuclear Orientation (Angstroms)
    I     Atom           X                Y                Z
 ----------------------------------------------------------------
    1      C       2.3210569749    -0.0416214722    -0.0000650293
    2      C       0.9080453703     0.4774171807     0.0000943285
    3      O       0.0321645298    -0.6363659897    -0.0000013237
    4      H      -0.8754570241    -0.3091581186    -0.0000035321
    5      H       3.0304696046     0.7825825661    -0.0003826290
    6      H       2.4947109040    -0.6529365067    -0.8813386396
    7      H       2.4950076796    -0.6525106660     0.8814423749
    8      H       0.7387893185     1.0990217177    -0.8818487275
    9      H       0.7388830871     1.0988374833     0.8821882669
   10      O      -2.7345712959     0.1853785295     0.0000277530
   11      H      -3.1889576211    -0.1867747686     0.7595388151
   12      H      -3.1888058904    -0.1859362766    -0.7599831577
 ----------------------------------------------------------------
 Molecular Point Group                 C1    NOp =  1
 Largest Abelian Subgroup              C1    NOp =  1
 Nuclear Repulsion Energy =         128.52539211 hartrees
 There are       18 alpha and       18 beta electrons
 Requested basis set is def2-TZVPPD
 There are 110 shells and 290 basis functions

 Q-Chem warning in module libmdc/get_mega.C, line 167:

 Allowed MEM_STATIC has been capped at MEM_STATIC=8191.
 Reduce the value of MEM_STATIC to silence this warning.


 Total QAlloc Memory Limit  50000 MB
 Mega-Array Size      8007 MB
 MEM_STATIC part      8191 MB


                       Distance Matrix (Angstroms)
             C (  1)   C (  2)   O (  3)   H (  4)   H (  5)   H (  6)
   C (  2)  1.505325
   O (  3)  2.364900  1.416926
   H (  4)  3.207690  1.949252  0.964801
   H (  5)  1.087464  2.144251  3.317114  4.055633
   H (  6)  1.086510  2.138254  2.615562  3.500424  1.767438
   H (  7)  1.086508  2.138214  2.615875  3.500696  1.767435  1.762781
   H (  8)  2.140603  1.092183  2.070880  2.316552  2.475665  2.480447
   H (  9)  2.140629  1.092185  2.070903  2.316637  2.475948  3.043299
   O ( 10)  5.060722  3.654305  2.886190  1.923765  5.795891  5.368889
   H ( 11)  5.564021  4.219400  3.339859  2.438066  6.340222  5.934128
   H ( 12)  5.563892  4.219235  3.339927  2.438101  6.339906  5.703962
             H (  7)   H (  8)   H (  9)   O ( 10)   H ( 11)
   H (  8)  3.043249
   H (  9)  2.480160  1.764037
   O ( 10)  5.369120  3.698200  3.698310
   H ( 11)  5.704317  4.446867  4.134704  0.960116
   H ( 12)  5.934451  4.134244  4.446809  0.960115  1.519522
 
 A cutoff of  1.0D-14 yielded   5661 shell pairs
 There are     39267 function pairs (     48357 Cartesian)
 Smallest overlap matrix eigenvalue = 1.14E-05

 Scale SEOQF with 1.000000e-01/1.000000e-01/1.000000e-01

 Standard Electronic Orientation quadrupole field applied
 Nucleus-field energy     =     0.0000000052 hartrees

 -----------------------------------------------------------------------
  General SCF calculation program by
  Eric Jon Sundstrom, Paul Horn, Yuezhi Mao, Dmitri Zuev, Alec White,
  David Stuck, Shaama M.S., Shane Yost, Joonho Lee, David Small,
  Daniel Levine, Susi Lehtola, Hugh Burton, Evgeny Epifanovsky,
  Bang C. Huynh
 -----------------------------------------------------------------------
================================================================
                 ALMO-EDA with the EDA2 driver                  
================================================================
 The second-generation ALMO-EDA (for DFT):                      
 P. R. Horn, Y. Mao and M. Head-Gordon, PCCP, 18, 23067 (2016)  
 Y. Mao et al. Annu. Rev. Phys. Chem. 72, 641 (2021)            
 Decomposition of the frozen energy:                            
 P. R. Horn, Y. Mao and M. Head-Gordon, JCP, 144, 114107 (2016) 
 FERF model for polarization:                                   
 P. R. Horn and M. Head-Gordon, JCP, 143, 114111 (2015)         
================================================================
 Using eda2 option set 1
 Option set summary: Frozen orbital wavefunction, initial wavefunction decomposition, and nDQ polarization.
--------------------------------
Printing EDA Options
--------------------------------
eda_child_super_basis      0
fragmo_guess_mode          0
child_mp                   1
child_mp_orders            232
cls_elec                   1
cls_disp                   1
scfmi_mode                 1
scfmi_occs                 0
scfmi_virts                0
frz_relax                  0
frz_relax_method           0
dc_pen_start               0
dc_pen_conv                0
dc_pen_increment           0
dc_pen_steps               0
dc_pen_thresh_factor       0
dc_pen_pre_newton_thresh   0
frz_ortho_decomp           1
frz_ortho_decomp_conv      6
plot_mo_ortho_frz          0
frgm_method                2
scfmi_freeze_ss            0
separate_rehyb             0
plot_diff_den              0
eda_nocv                   0
eda_vct_relax              1
disp_free_x                0
disp_free_c                0
eda_bsse                   0
eda_pct_a                  0
eda_covp                   0
eda_pol_a                  0
eda_vct_a                  0
has_sol                    0
print_level                1
--------------------------------
 Attempting to make child job directory: /home/kchung25/scratch/qchem4412//Frg1/
 Attempting to make child job directory: /home/kchung25/scratch/qchem4412//Frg2/
 Creating input file /home/kchung25/scratch/qchem4412/Frg1.input
 using default PutDataFrgm: nothing
 calling putenv with: QCSCRATCH=/home/kchung25/scratch/qchem4412/ 
 Spawning Job For Fragment 0
 Done Job For Fragment 0
 calling putenv with: QCSCRATCH=/home/kchung25/scratch 
 calling putenv with: QCTHREADS=2 
 Creating input file /home/kchung25/scratch/qchem4412/Frg2.input
 using default PutDataFrgm: nothing
 calling putenv with: QCSCRATCH=/home/kchung25/scratch/qchem4412/ 
 Spawning Job For Fragment 1
 Done Job For Fragment 1
 calling putenv with: QCSCRATCH=/home/kchung25/scratch 
 calling putenv with: QCTHREADS=2 
Doing General SCFMI
 Exchange:     0.1500 Hartree-Fock + 1.0000 wB97M-V + LR-HF
 Correlation:  1.0000 wB97M-V
 Using Euler-Maclaurin-Lebedev (99,590) quadrature formula
 Nonlocal Correlation:  VV10 with C = 0.0100 and b = 6.00 and scale = 1.00000
 Grid used for NLC:  SG-1 standard quadrature
performing fock build before subrot guess so that all methods have access
Printing subrot_rss_gen Method Specification:
Occupied Subspace Method is 0
Virtual Subspace Method is 0
Energy of the unrelaxed supersystem initial determinant -231.468828210207
write pseudocanon occs and virts to disk
write pseudocanon orbital energies to disk
Tolerance of ortho_decomp_scf: 1.00e-06
GDM subspace size: 20
Beginning the Orthogonal Decomposition of the Initial Supersystem Wavefunction
    1    -231.4285311146      1.41e-01     ortho_decomp Preconditoned Steepest Descent
    2    -231.4330466272      2.46e-03     ortho_decomp BFGS Step
    3    -231.4330553293      1.86e-04     ortho_decomp BFGS Step
    4    -231.4330553449      5.72e-06     ortho_decomp BFGS Step
    5    -231.4330553449      1.30e-07     ortho_decomp 00000 Convergence criterion met
 Hartree-Fock
 Hartree-Fock
 Hartree-Fock
 Exchange:     0.1500 Hartree-Fock + 1.0000 wB97M-V + LR-HF
 Correlation:  1.0000 wB97M-V
 Using Euler-Maclaurin-Lebedev (99,590) quadrature formula
 Nonlocal Correlation:  VV10 with C = 0.0100 and b = 6.00 and scale = 1.00000
 Grid used for NLC:  SG-1 standard quadrature
 Long-range K will be added via erf
 Coulomb attenuation parameter = 0.3 bohr**(-1)
 Nonlocal correlation = 1.449059366905e-01
Doing General SCFMI
 Exchange:     0.1500 Hartree-Fock + 1.0000 wB97M-V + LR-HF
 Correlation:  1.0000 wB97M-V
 Using Euler-Maclaurin-Lebedev (99,590) quadrature formula
 Nonlocal Correlation:  VV10 with C = 0.0100 and b = 6.00 and scale = 1.00000
 Grid used for NLC:  SG-1 standard quadrature
performing fock build at end of subrot_r(subrot) constructor so that all methods have access
<S^2> of initial wavefunction before polarization iterations 0.0000000000
Beginning iterations for the determination of the polarized wavefunction
Energy prior to optimization (guess energy) = -231.468828210207
Begin Timing: Total SCF Calculation
begin iterations for algorithm: DIIS         
the SCF tolerance is set to 1.00e-08
    1    -231.4688282102      3.37e-04     00000 
    2    -231.4707155382      1.00e-04     00000 
    3    -231.4708737505      6.03e-05     00000 
    4    -231.4709074184      2.48e-05     00000 
    5    -231.4709152624      6.96e-06     00000 
    6    -231.4709166602      2.89e-06     00000 
    7    -231.4709167914      1.11e-06     00000 
    8    -231.4709168105      3.53e-07     00000 
    9    -231.4709168116      9.31e-08     00000 
   10    -231.4709168118      2.28e-08     00000 
   11    -231.4709168118      7.42e-09     00000 Convergence criterion met
write pseudocanon occs and virts to disk
write pseudocanon orbital energies to disk
Timing for Total SCF: 89.00s (wall), 176.66s (cpu)
<S^2> of polarized wavefunction after polarization iterations 0.0000000000
relaxing scfmi constraint to allow all rotations in the entire AO span
Doing General SCFMI
 Exchange:     0.1500 Hartree-Fock + 1.0000 wB97M-V + LR-HF
 Correlation:  1.0000 wB97M-V
 Using Euler-Maclaurin-Lebedev (99,590) quadrature formula
 Nonlocal Correlation:  VV10 with C = 0.0100 and b = 6.00 and scale = 1.00000
 Grid used for NLC:  SG-1 standard quadrature
performing fock build at end of subrot_r(subrot) constructor so that all methods have access
<S^2> of polarized wavefunction before ct-allowed iterations 0.0000000000
Beginning iterations for the determination of the CT-Allowed wavefunction
Energy prior to optimization (guess energy) = -231.470916811782
Begin Timing: Total SCF Calculation
begin iterations for algorithm: DIIS         
the SCF tolerance is set to 1.00e-08
    1    -231.4709168118      2.45e-04     00000 
    2    -231.4738093622      3.74e-05     00000 
    3    -231.4739137222      1.59e-05     00000 
    4    -231.4739203883      7.11e-06     00000 
    5    -231.4739220767      6.75e-07     00000 
    6    -231.4739220996      4.02e-07     00000 
    7    -231.4739221054      1.05e-07     00000 
    8    -231.4739221058      1.87e-08     00000 
    9    -231.4739221059      8.22e-09     00000 Convergence criterion met
write pseudocanon occs and virts to disk
write pseudocanon orbital energies to disk
Timing for Total SCF: 70.00s (wall), 140.34s (cpu)
<S^2> of ct_allowed wavefunction after ct-allowed iterations 0.0000000000

================================
        Results of EDA2         
================================
Basic EDA Quantities
--------------------
Fragment Energies (Ha):
1   -155.0296554120
2    -76.4363863745
--------------------
  E_prp (kJ/mol) = 0.0000
  E_frz (kJ/mol) = -7.3158
  E_pol (kJ/mol) = -5.4837
  E_vct (kJ/mol) = -7.8905
  E_int (kJ/mol) = -20.6900
--------------------


Decomposition of frozen interaction energy
--------------------
  --------------------
  Orthogonal Frozen Decomposition:
  --------------------
     E_elec   (ELEC)   (kJ/mol) = -69.1458
     E_pauli  (PAULI)  (kJ/mol) = 70.8049
     E_disp   (DISP)   (kJ/mol) = -8.9750
  --------------------
  Classical Frozen Decomposition:
  --------------------
     E_cls_elec  (CLS ELEC)  (kJ/mol) = -36.1500
     E_mod_pauli (MOD PAULI) (kJ/mol) = 36.4540 (FRZ - CLS ELEC - CLS DISP)
     E_cls_disp  (CLS DISP)  (kJ/mol) = -7.6198
  --------------------
--------------------

Simplified EDA Summary (kJ/mol)
--------------------
 PREPARATION      0.0000
 FROZEN           -7.3158 (ELEC + PAULI + DISP)
[ELEC + PAULI = 0.3040, DISP = -7.6198]
 POLARIZATION    -5.4837
 CHARGE TRANSFER -7.8905
 TOTAL           -20.6900     (PRP + FRZ + POL + CT)
--------------------
 
 --------------------------------------------------------------
 
                    Orbital Energies (a.u.)
 --------------------------------------------------------------
 
 Alpha MOs
 -- Occupied --
-19.3645 -19.3028 -10.3684 -10.3138  -1.1717  -1.1242  -0.8583  -0.7113
 -0.6683  -0.6130  -0.5619  -0.5342  -0.4920  -0.4746  -0.4542  -0.4537
 -0.4133  -0.3580
 -- Virtual --
  0.0217   0.0573   0.0633   0.0709   0.0830   0.1036   0.1081   0.1227
  0.1316   0.1421   0.1566   0.1634   0.1768   0.1782   0.1933   0.2101
  0.2200   0.2305   0.2363   0.2486   0.2582   0.2665   0.2814   0.2915
  0.2987   0.2987   0.3117   0.3145   0.3208   0.3342   0.3359   0.3380
  0.3531   0.3553   0.3596   0.3678   0.3683   0.3819   0.3900   0.3915
  0.3993   0.4118   0.4180   0.4416   0.4426   0.4524   0.4540   0.4683
  0.4790   0.4872   0.4908   0.4985   0.5210   0.5296   0.5478   0.5622
  0.5794   0.5917   0.6047   0.6216   0.6566   0.6722   0.6750   0.6790
  0.6890   0.6951   0.7222   0.7230   0.7521   0.7611   0.7636   0.7691
  0.7801   0.7854   0.8048   0.8055   0.8375   0.8506   0.8830   0.8950
  0.9157   0.9306   0.9795   0.9805   0.9853   0.9874   1.0531   1.0714
  1.0823   1.1437   1.1494   1.1666   1.1805   1.2000   1.2029   1.2142
  1.2146   1.2561   1.2619   1.2735   1.2944   1.3035   1.3076   1.3585
  1.3649   1.3717   1.3808   1.4275   1.4382   1.4481   1.4903   1.5007
  1.5934   1.6230   1.6384   1.6603   1.6631   1.6905   1.6911   1.7207
  1.7442   1.7864   1.9281   1.9397   1.9521   1.9946   2.0607   2.0812
  2.1049   2.1158   2.1883   2.2416   2.2441   2.2887   2.3161   2.3549
  2.4176   2.4363   2.5470   2.6097   2.7056   2.7344   2.7440   2.7855
  2.8513   2.8658   2.8924   2.9335   2.9570   2.9965   2.9971   3.0059
  3.0446   3.0644   3.0698   3.1441   3.1580   3.2098   3.2188   3.2222
  3.2356   3.2433   3.2551   3.3109   3.3187   3.3199   3.3504   3.3638
  3.3885   3.4128   3.4577   3.4675   3.4773   3.4791   3.5293   3.5571
  3.5698   3.6108   3.6276   3.6831   3.7080   3.7086   3.7914   3.7930
  3.8082   3.8924   3.9166   3.9411   3.9568   4.0000   4.0025   4.0202
  4.0310   4.0553   4.0956   4.1138   4.1309   4.1311   4.1615   4.1853
  4.1956   4.2105   4.2143   4.2278   4.2782   4.2860   4.2978   4.3120
  4.3748   4.3795   4.4033   4.4827   4.4906   4.5103   4.5479   4.6069
  4.6706   4.6951   4.7181   4.7733   4.8245   4.8511   4.8757   4.9380
  4.9600   4.9773   5.0145   5.0165   5.0486   5.1218   5.2275   5.2898
  5.3206   5.4127   5.4233   5.4404   5.4526   5.4884   5.5276   5.5762
  5.6495   5.6632   5.7113   5.7716   5.8011   5.8469   5.9812   6.1311
  6.2714   6.2793   6.5474   6.5665   6.6600   6.6976   6.7259   6.7728
  6.8577   6.8833   6.8923   6.9827   7.0747   7.1259   7.3934   7.5114
  7.6321   7.6410   7.8221   7.8728  23.7838  24.0907  44.3782  44.8277
 --------------------------------------------------------------
 
          Ground-State Mulliken Net Atomic Charges

     Atom                 Charge (a.u.)
  ----------------------------------------
      1 C                    -1.059665
      2 C                    -0.169825
      3 O                    -0.449572
      4 H                     0.238400
      5 H                     0.303187
      6 H                     0.271687
      7 H                     0.271668
      8 H                     0.293879
      9 H                     0.293848
     10 O                    -0.342874
     11 H                     0.174633
     12 H                     0.174634
  ----------------------------------------
  Sum of atomic charges =     0.000000

 -----------------------------------------------------------------
                    Cartesian Multipole Moments
 -----------------------------------------------------------------
    Charge (ESU x 10^10)
                 0.0000
    Dipole Moment (Debye)
         X      -2.6633      Y       0.4183      Z      -0.0007
       Tot       2.6959
    Quadrupole Moments (Debye-Ang)
        XX     -15.4486     XY       4.3438     YY     -29.5367
        XZ       0.0024     YZ      -0.0015     ZZ     -25.0692
    Octopole Moments (Debye-Ang^2)
       XXX     -57.7404    XXY     -13.3707    XYY      -3.1651
       YYY      -0.6717    XXZ      -0.0077    XYZ       0.0048
       YYZ      -0.0003    XZZ     -12.4761    YZZ      -0.7408
       ZZZ      -0.0013
    Hexadecapole Moments (Debye-Ang^3)
      XXXX    -511.9115   XXXY      43.4297   XXYY    -123.8334
      XYYY       2.0482   YYYY     -74.0516   XXXZ       0.0206
      XXYZ      -0.0166   XYYZ      -0.0022   YYYZ      -0.0011
      XXZZ     -91.2874   XYZZ       0.1177   YYZZ     -19.0414
      XZZZ       0.0077   YZZZ      -0.0014   ZZZZ     -42.7321
 -----------------------------------------------------------------
 Total job time:  629.42s(wall), 593.55s(cpu) 
 Thu Feb 27 15:58:11 2025

        *************************************************************
        *                                                           *
        *  Thank you very much for using Q-Chem.  Have a nice day.  *
        *                                                           *
        *************************************************************


