
Running Job 1 of 1 002_ethanol_WA_0.95_almo.inp
qchem 002_ethanol_WA_0.95_almo.inp_4291.0 /home/kchung25/scratch/qchem4291/ 1
/home/kchung25/qchem/exe/qcprog.exe_s 002_ethanol_WA_0.95_almo.inp_4291.0 /home/kchung25/scratch/qchem4291/
                  Welcome to Q-Chem
     A Quantum Leap Into The Future Of Chemistry


 Q-Chem 6.2, Q-Chem, Inc., Pleasanton, CA (2024)

 E. Epifanovsky,  A. T. B. Gilbert,  Xintian Feng,  Joonho Lee,  Yuezhi Mao,  
 N. Mardirossian,  P. Pokhilko,  A. White,  M. Wormit,  M. P. Coons,  
 A. L. Dempwolff,  Zhengting Gan,  D. Hait,  P. R. Horn,  L. D. Jacobson,  
 I. Kaliman,  J. Kussmann,  A. W. Lange,  Ka Un Lao,  D. S. Levine,  Jie Liu,  
 S. C. McKenzie,  A. F. Morrison,  K. D. Nanda,  F. Plasser,  D. R. Rehn,  
 M. L. Vidal,  Zhi-Qiang You,  Ying Zhu,  Huseyin Aksu,  B. Alam,  
 B. Albrecht,  A. Aldossary,  E. Alguire,  J. H. Andersen,  
 J. E. Arias-Martinez,  V. Athavale,  D. Barton,  K. Begam,  A. Behn,  
 N. Bellonzi,  Y. A. Bernard,  E. J. Berquist,  H. Burton,  A. Carreras,  
 K. Carter-Fenk,  Mathew Chow,  Romit Chakraborty,  Chandrima Chakravarty,  
 Junhan Chen,  A. D. Chien,  K. D. Closser,  V. Cofer-Shabica,  L. Cunha,  
 S. Dasgupta,  Jia Deng,  Joseph Dickinson,  M. de Wergifosse,  
 M. Diedenhofen,  Hainam Do,  Wenjie Dou,  S. Ehlert,  Po-Tung Fang,  
 S. Fatehi,  Qingguo Feng,  Jonathan Fetherolf,  T. Friedhoff,  
 Thomas Froitzheim,  Sarai Folkestad,  B. Ganoe,  J. Gayvert,  Qinghui Ge,  
 G. Gidofalvi,  M. Gimferrer,  M. Goldey,  Montgomery Gray,  J. Gomes,  
 C. Gonzalez-Espinoza,  S. Gulania,  A. Gunina,  J. A. Gyamfi,  
 M. W. D. Hanson-Heine,  P. H. P. Harbach,  A. W. Hauser,  M. F. Herbst,  
 M. Hernandez Vera,  M. Hodecker,  Z. C. Holden,  S. Houck,  Xunkun Huang,  
 Kerwin Hui,  B. C. Huynh,  K. Ikeda,  M. Ivanov,  Nayanthara K. Jayadev,  
 Hyunjun Ji,  Zuxin Jin,  Hanjie Jiang,  Subrata Jana,  B. Kaduk,  
 S. Kaehler,  R. Kang,  K. Khistyaev,  Jaehoon Kim,  Yongbin Kim,  
 P. Klunzinger,  Z. Koczor-Benda,  Joong Hoon Koh,  D. Kosenkov,  
 Saikiran Kotaru,  L. Koulias,  T. Kowalczyk,  C. M. Krauter,  K. Kue,  
 A. Kunitsa,  T. Kus,  A. Landau,  K. V. Lawler,  D. Lefrancois,  S. Lehtola,  
 Rain Li,  Shaozhi Li,  Tao E. Li,  Yi-Pei Li,  Jiashu Liang,  M. Liebenthal,  
 Hung-Hsuan Lin,  You-Sheng Lin,  Fenglai Liu,  Kuan-Yu Liu,  Xiao Liu,  
 M. Loipersberger,  A. Luenser,  C. Malbon,  Aniket Mandal,  Manisha,  
 A. Manjanath,  P. Manohar,  E. Mansoor,  S. F. Manzer,  Shan-Ping Mao,  
 A. V. Marenich,  T. Markovich,  S. Mason,  F. Matz,  S. A. Maurer,  
 Samuel May,  Alexandra McIsaac,  P. F. McLaughlin,  M. F. S. J. Menger,  
 J.-M. Mewes,  S. A. Mewes,  P. Morgante,  Mohammad Mostafanejad,  
 Madhubani Mukherjee,  J. W. Mullinax,  Quyen Nguyen,  Avik Kumar Ojha,  
 K. J. Oosterbaan,  Eno Paenurk,  Xiaoliang Pan,  G. Paran,  V. Parravicini,  
 Alexander C. Paul,  Suranjan K. Paul,  F. Pavosevic,  Zheng Pei,  S. Prager,  
 E. I. Proynov,  E. Ramos,  B. Rana,  A. E. Rask,  A. Rettig,  R. M. Richard,  
 F. Rob,  E. Rossomme,  T. Scheele,  M. Scheurer,  M. Schneider,  
 P. E. Schneider,  Tim K. Schramm,  N. Sergueev,  S. M. Sharada,  
 Hengyuan Shen,  W. Skomorowski,  D. W. Small,  C. J. Stein,  
 Alistair J. Sterling,  Yingli Su,  Yu-Chuan Su,  E. J. Sundstrom,  
 J. Talbot,  Zhen Tao,  J. Thirman,  Hung-Yi Tsai,  T. Tsuchimochi,  
 N. M. Tubman,  C. Utku,  S. P. Veccham,  O. Vydrov,  Rahel Weiss,  
 J. Wenzel,  Jonathan Wong,  J. Witte,  H. Wu,  Yanze Wu,  A. Yamada,  
 Chou-Hsun Yang,  Kun Yao,  S. Yeganeh,  S. R. Yost,  Qi Yu,  A. Zech,  
 F. Zeller,  Chongxiao Zhao,  Igor Ying Zhang,  Xing Zhang,  Yu Zhang,  
 D. Zuev,  A. Aspuru-Guzik,  A. T. Bell,  N. A. Besley,  K. B. Bravaya,  
 B. R. Brooks,  D. Casanova,  Jeng-Da Chai,  Hsing-Ta Chen,  S. Coriani,  
 C. J. Cramer,  A. E. DePrince, III,  R. A. DiStasio Jr.,  A. Dreuw,  
 B. D. Dunietz,  T. R. Furlani,  W. A. Goddard III,  S. Grimme,  
 S. Hammes-Schiffer,  T. Head-Gordon,  W. J. Hehre,  Chao-Ping Hsu,  
 T.-C. Jagau,  Yousung Jung,  A. Klamt,  Jing Kong,  D. S. Lambrecht,  
 Xiangyuan Li,  WanZhen Liang,  N. J. Mayhall,  C. W. McCurdy,  J. B. Neaton,  
 T. Neudecker,  C. Ochsenfeld,  J. A. Parkhill,  R. Peverati,  
 V. A. Rassolov,  Haisheng Ren,  Yihan Shao,  L. V. Slipchenko,  
 R. P. Steele,  J. E. Subotnik,  A. J. W. Thom,  A. Tkatchenko,  
 D. G. Truhlar,  T. Van Voorhis,  Fan Wang,  T. A. Wesolowski,  K. B. Whaley,  
 H. L. Woodcock III,  P. M. Zimmerman,  S. Faraji,  P. M. W. Gill,  
 M. Head-Gordon,  J. M. Herbert,  A. I. Krylov

 Contributors to earlier versions of Q-Chem not listed above: 
 R. D. Adamson,  B. Austin,  R. Baer,  J. Baker,  G. J. O. Beran,  
 K. Brandhorst,  S. T. Brown,  E. F. C. Byrd,  Arup K. Chakraborty,  
 G. K. L. Chan,  Chun-Min Chang,  Yunqing Chen,  C.-L. Cheng,  
 Siu Hung Chien,  D. M. Chipman,  D. L. Crittenden,  H. Dachsel,  
 R. J. Doerksen,  A. D. Dutoi,  R. G. Edgar,  J. Fosso-Tande,  
 L. Fusti-Molnar,  D. Ghosh,  A. Ghysels,  A. Golubeva-Zadorozhnaya,  
 J. Gonthier,  M. S. Gordon,  S. R. Gwaltney,  G. Hawkins,  J. E. Herr,  
 A. Heyden,  S. Hirata,  E. G. Hohenstein,  G. Kedziora,  F. J. Keil,  
 C. Kelley,  Jihan Kim,  R. A. King,  R. Z. Khaliullin,  P. P. Korambath,  
 W. Kurlancheek,  A. Laurent,  A. M. Lee,  M. S. Lee,  S. V. Levchenko,  
 Ching Yeh Lin,  D. Liotard,  E. Livshits,  R. C. Lochan,  I. Lotan,  
 L. A. Martinez-Martinez,  P. E. Maslen,  N. Nair,  D. P. O'Neill,  
 D. Neuhauser,  E. Neuscamman,  C. M. Oana,  R. Olivares-Amaya,  R. Olson,  
 T. M. Perrine,  B. Peters,  P. A. Pieniazek,  A. Prociuk,  Y. M. Rhee,  
 J. Ritchie,  M. A. Rohrdanz,  E. Rosta,  N. J. Russ,  H. F. Schaefer III,  
 M. W. Schmidt,  N. E. Schultz,  S. Sharma,  N. Shenvi,  C. D. Sherrill,  
 A. C. Simmonett,  A. Sodt,  T. Stein,  D. Stuck,  K. S. Thanthiriwatte,  
 V. Vanovschi,  L. Vogt,  Tao Wang,  A. Warshel,  M. A. Watson,  
 C. F. Williams,  Q. Wu,  X. Xu,  Jun Yang,  W. Zhang,  Yan Zhao

   Please cite Q-Chem as follows:
  "Software for the frontiers of quantum chemistry:
   An overview of developments in the Q-Chem 5 package"
   J. Chem. Phys. 155, 084801 (2021)
   https://doi.org/10.1063/5.0055522 (open access)

 Q-Chem 6.2.2 for Intel X86 EM64T Linux

 Parts of Q-Chem use Armadillo 9.900.5 (Nocturnal Misbehaviour).
 http://arma.sourceforge.net/

 Q-Chem begins on Thu Feb 27 15:36:39 2025  

 Host: 
0

     Scratch files written to /home/kchung25/scratch/qchem4291//
 Nov1724 |scratch|qcdevops|jenkins|workspace|build_RNUM -1
 Processing $rem in /home/kchung25/qchem/config/preferences:
 Processing $rem in /home/kchung25/.qchemrc:

 Q-Chem warning in module libgen/rem_setup.C, line 3433:

 Neither GIA nor STOLL is specified by user. Use STOLL as the default


 Checking the input file for inconsistencies... 	...done.

--------------------------------------------------------------
User input:
--------------------------------------------------------------
$molecule
0 1
--
0 1
C    2.355352   0.003156   0.000061
C    0.937302  -0.501955  -0.000075
O    0.072422   0.620392  -0.000014
H   -0.838375   0.302130   0.000003
H    3.056621  -0.827988   0.000404
H    2.535016   0.612763   0.881313
H    2.535301   0.612274  -0.881468
H    0.761942  -1.121834   0.881890
H    0.762030  -1.121711  -0.882147
--
0 1
O   -2.563531  -0.134367  -0.000005
H   -3.014237   0.242213  -0.759526
H   -3.014087   0.241425   0.759996
$end

$rem
JOBTYPE          eda
EDA2             1
METHOD           wB97M-V
BASIS            def2-TZVPPD
SYMMETRY         false
MEM_TOTAL        50000
MEM_STATIC       10000
THRESH           14
SCF_CONVERGENCE  8
XC_GRID          000099000590
NL_GRID          1
EDA_CLS_DISP     true
FD_MAT_VEC_PROD  FALSE
$end
--------------------------------------------------------------
 ----------------------------------------------------------------
             Standard Nuclear Orientation (Angstroms)
    I     Atom           X                Y                Z
 ----------------------------------------------------------------
    1      C       2.2822014115    -0.0535707648    -0.0000646329
    2      C       0.8745764673     0.4799036344     0.0000937195
    3      O      -0.0126586618    -0.6248560786     0.0000001938
    4      H      -0.9168835215    -0.2883753520    -0.0000026485
    5      H       3.0000130517     0.7633288766    -0.0003838058
    6      H       2.4495890946    -0.6666329056    -0.8813370708
    7      H       2.4498902340    -0.6662067483     0.8814439428
    8      H       0.7116917292     1.1032063465    -0.8818505285
    9      H       0.7117836279     1.1030245411     0.8821864662
   10      O      -2.6329299075     0.1826635587     0.0000268006
   11      H      -3.0911016107    -0.1848179004     0.7595375720
   12      H      -3.0909413233    -0.1839839161    -0.7599844024
 ----------------------------------------------------------------
 Molecular Point Group                 C1    NOp =  1
 Largest Abelian Subgroup              C1    NOp =  1
 Nuclear Repulsion Energy =         130.10090884 hartrees
 There are       18 alpha and       18 beta electrons
 Requested basis set is def2-TZVPPD
 There are 110 shells and 290 basis functions

 Q-Chem warning in module libmdc/get_mega.C, line 167:

 Allowed MEM_STATIC has been capped at MEM_STATIC=8191.
 Reduce the value of MEM_STATIC to silence this warning.


 Total QAlloc Memory Limit  50000 MB
 Mega-Array Size      8007 MB
 MEM_STATIC part      8191 MB


                       Distance Matrix (Angstroms)
             C (  1)   C (  2)   O (  3)   H (  4)   H (  5)   H (  6)
   C (  2)  1.505325
   O (  3)  2.364900  1.416926
   H (  4)  3.207690  1.949252  0.964801
   H (  5)  1.087464  2.144251  3.317114  4.055633
   H (  6)  1.086510  2.138254  2.615562  3.500424  1.767438
   H (  7)  1.086508  2.138214  2.615875  3.500696  1.767435  1.762781
   H (  8)  2.140603  1.092183  2.070880  2.316552  2.475665  2.480447
   H (  9)  2.140629  1.092185  2.070903  2.316637  2.475948  3.043299
   O ( 10)  4.920805  3.520078  2.741881  1.779520  5.662792  5.227820
   H ( 11)  5.428315  4.092091  3.201147  2.305396  6.211130  5.798609
   H ( 12)  5.428181  4.091918  3.201214  2.305428  6.210807  5.562837
             H (  7)   H (  8)   H (  9)   O ( 10)   H ( 11)
   H (  8)  3.043249
   H (  9)  2.480160  1.764037
   O ( 10)  5.228053  3.579330  3.579438
   H ( 11)  5.563199  4.337557  4.016904  0.960115
   H ( 12)  5.798934  4.016432  4.337492  0.960116  1.519522
 
 A cutoff of  1.0D-14 yielded   5699 shell pairs
 There are     39677 function pairs (     48901 Cartesian)
 Smallest overlap matrix eigenvalue = 1.13E-05

 Scale SEOQF with 1.000000e-01/1.000000e-01/1.000000e-01

 Standard Electronic Orientation quadrupole field applied
 Nucleus-field energy     =     0.0000000049 hartrees

 -----------------------------------------------------------------------
  General SCF calculation program by
  Eric Jon Sundstrom, Paul Horn, Yuezhi Mao, Dmitri Zuev, Alec White,
  David Stuck, Shaama M.S., Shane Yost, Joonho Lee, David Small,
  Daniel Levine, Susi Lehtola, Hugh Burton, Evgeny Epifanovsky,
  Bang C. Huynh
 -----------------------------------------------------------------------
================================================================
                 ALMO-EDA with the EDA2 driver                  
================================================================
 The second-generation ALMO-EDA (for DFT):                      
 P. R. Horn, Y. Mao and M. Head-Gordon, PCCP, 18, 23067 (2016)  
 Y. Mao et al. Annu. Rev. Phys. Chem. 72, 641 (2021)            
 Decomposition of the frozen energy:                            
 P. R. Horn, Y. Mao and M. Head-Gordon, JCP, 144, 114107 (2016) 
 FERF model for polarization:                                   
 P. R. Horn and M. Head-Gordon, JCP, 143, 114111 (2015)         
================================================================
 Using eda2 option set 1
 Option set summary: Frozen orbital wavefunction, initial wavefunction decomposition, and nDQ polarization.
--------------------------------
Printing EDA Options
--------------------------------
eda_child_super_basis      0
fragmo_guess_mode          0
child_mp                   1
child_mp_orders            232
cls_elec                   1
cls_disp                   1
scfmi_mode                 1
scfmi_occs                 0
scfmi_virts                0
frz_relax                  0
frz_relax_method           0
dc_pen_start               0
dc_pen_conv                0
dc_pen_increment           0
dc_pen_steps               0
dc_pen_thresh_factor       0
dc_pen_pre_newton_thresh   0
frz_ortho_decomp           1
frz_ortho_decomp_conv      6
plot_mo_ortho_frz          0
frgm_method                2
scfmi_freeze_ss            0
separate_rehyb             0
plot_diff_den              0
eda_nocv                   0
eda_vct_relax              1
disp_free_x                0
disp_free_c                0
eda_bsse                   0
eda_pct_a                  0
eda_covp                   0
eda_pol_a                  0
eda_vct_a                  0
has_sol                    0
print_level                1
--------------------------------
 Attempting to make child job directory: /home/kchung25/scratch/qchem4291//Frg1/
 Attempting to make child job directory: /home/kchung25/scratch/qchem4291//Frg2/
 Creating input file /home/kchung25/scratch/qchem4291/Frg1.input
 using default PutDataFrgm: nothing
 calling putenv with: QCSCRATCH=/home/kchung25/scratch/qchem4291/ 
 Spawning Job For Fragment 0
 Done Job For Fragment 0
 calling putenv with: QCSCRATCH=/home/kchung25/scratch 
 calling putenv with: QCTHREADS=2 
 Creating input file /home/kchung25/scratch/qchem4291/Frg2.input
 using default PutDataFrgm: nothing
 calling putenv with: QCSCRATCH=/home/kchung25/scratch/qchem4291/ 
 Spawning Job For Fragment 1
 Done Job For Fragment 1
 calling putenv with: QCSCRATCH=/home/kchung25/scratch 
 calling putenv with: QCTHREADS=2 
Doing General SCFMI
 Exchange:     0.1500 Hartree-Fock + 1.0000 wB97M-V + LR-HF
 Correlation:  1.0000 wB97M-V
 Using Euler-Maclaurin-Lebedev (99,590) quadrature formula
 Nonlocal Correlation:  VV10 with C = 0.0100 and b = 6.00 and scale = 1.00000
 Grid used for NLC:  SG-1 standard quadrature
performing fock build before subrot guess so that all methods have access
Printing subrot_rss_gen Method Specification:
Occupied Subspace Method is 0
Virtual Subspace Method is 0
Energy of the unrelaxed supersystem initial determinant -231.465168434285
write pseudocanon occs and virts to disk
write pseudocanon orbital energies to disk
Tolerance of ortho_decomp_scf: 1.00e-06
GDM subspace size: 20
Beginning the Orthogonal Decomposition of the Initial Supersystem Wavefunction
    1    -231.4095123742      1.79e-01     ortho_decomp Preconditoned Steepest Descent
    2    -231.4167414578      3.21e-03     ortho_decomp BFGS Step
    3    -231.4167561391      2.51e-04     ortho_decomp BFGS Step
    4    -231.4167561676      7.98e-06     ortho_decomp BFGS Step
    5    -231.4167561676      1.81e-07     ortho_decomp 00000 Convergence criterion met
 Hartree-Fock
 Hartree-Fock
 Hartree-Fock
 Exchange:     0.1500 Hartree-Fock + 1.0000 wB97M-V + LR-HF
 Correlation:  1.0000 wB97M-V
 Using Euler-Maclaurin-Lebedev (99,590) quadrature formula
 Nonlocal Correlation:  VV10 with C = 0.0100 and b = 6.00 and scale = 1.00000
 Grid used for NLC:  SG-1 standard quadrature
 Long-range K will be added via erf
 Coulomb attenuation parameter = 0.3 bohr**(-1)
 Nonlocal correlation = 1.446956681876e-01
Doing General SCFMI
 Exchange:     0.1500 Hartree-Fock + 1.0000 wB97M-V + LR-HF
 Correlation:  1.0000 wB97M-V
 Using Euler-Maclaurin-Lebedev (99,590) quadrature formula
 Nonlocal Correlation:  VV10 with C = 0.0100 and b = 6.00 and scale = 1.00000
 Grid used for NLC:  SG-1 standard quadrature
performing fock build at end of subrot_r(subrot) constructor so that all methods have access
<S^2> of initial wavefunction before polarization iterations 0.0000000000
Beginning iterations for the determination of the polarized wavefunction
Energy prior to optimization (guess energy) = -231.465168434285
Begin Timing: Total SCF Calculation
begin iterations for algorithm: DIIS         
the SCF tolerance is set to 1.00e-08
    1    -231.4651684343      4.19e-04     00000 
    2    -231.4679322092      1.31e-04     00000 
    3    -231.4681682517      8.66e-05     00000 
    4    -231.4682334691      3.00e-05     00000 
    5    -231.4682478033      9.45e-06     00000 
    6    -231.4682505420      4.41e-06     00000 
    7    -231.4682508317      1.61e-06     00000 
    8    -231.4682508757      4.65e-07     00000 
    9    -231.4682508779      1.29e-07     00000 
   10    -231.4682508782      3.23e-08     00000 
   11    -231.4682508782      1.11e-08     00000 
   12    -231.4682508782      4.29e-09     00000 Convergence criterion met
write pseudocanon occs and virts to disk
write pseudocanon orbital energies to disk
Timing for Total SCF: 95.00s (wall), 189.31s (cpu)
<S^2> of polarized wavefunction after polarization iterations 0.0000000000
relaxing scfmi constraint to allow all rotations in the entire AO span
Doing General SCFMI
 Exchange:     0.1500 Hartree-Fock + 1.0000 wB97M-V + LR-HF
 Correlation:  1.0000 wB97M-V
 Using Euler-Maclaurin-Lebedev (99,590) quadrature formula
 Nonlocal Correlation:  VV10 with C = 0.0100 and b = 6.00 and scale = 1.00000
 Grid used for NLC:  SG-1 standard quadrature
performing fock build at end of subrot_r(subrot) constructor so that all methods have access
<S^2> of polarized wavefunction before ct-allowed iterations 0.0000000000
Beginning iterations for the determination of the CT-Allowed wavefunction
Energy prior to optimization (guess energy) = -231.468250878247
Begin Timing: Total SCF Calculation
begin iterations for algorithm: DIIS         
the SCF tolerance is set to 1.00e-08
    1    -231.4682508782      3.19e-04     00000 
    2    -231.4729695430      4.90e-05     00000 
    3    -231.4731320398      2.30e-05     00000 
    4    -231.4731457808      8.61e-06     00000 
    5    -231.4731483519      1.05e-06     00000 
    6    -231.4731483985      5.39e-07     00000 
    7    -231.4731484088      1.60e-07     00000 
    8    -231.4731484098      2.19e-08     00000 
    9    -231.4731484099      1.06e-08     00000 
   10    -231.4731484099      1.51e-09     00000 Convergence criterion met
write pseudocanon occs and virts to disk
write pseudocanon orbital energies to disk
Timing for Total SCF: 77.00s (wall), 153.71s (cpu)
<S^2> of ct_allowed wavefunction after ct-allowed iterations 0.0000000000

================================
        Results of EDA2         
================================
Basic EDA Quantities
--------------------
Fragment Energies (Ha):
1   -155.0296554698
2    -76.4363863613
--------------------
  E_prp (kJ/mol) = 0.0000
  E_frz (kJ/mol) = 2.2931
  E_pol (kJ/mol) = -8.0931
  E_vct (kJ/mol) = -12.8586
  E_int (kJ/mol) = -18.6585
--------------------


Decomposition of frozen interaction energy
--------------------
  --------------------
  Orthogonal Frozen Decomposition:
  --------------------
     E_elec   (ELEC)   (kJ/mol) = -93.5688
     E_pauli  (PAULI)  (kJ/mol) = 107.1233
     E_disp   (DISP)   (kJ/mol) = -11.2614
  --------------------
  Classical Frozen Decomposition:
  --------------------
     E_cls_elec  (CLS ELEC)  (kJ/mol) = -48.5983
     E_mod_pauli (MOD PAULI) (kJ/mol) = 60.7978 (FRZ - CLS ELEC - CLS DISP)
     E_cls_disp  (CLS DISP)  (kJ/mol) = -9.9064
  --------------------
--------------------

Simplified EDA Summary (kJ/mol)
--------------------
 PREPARATION      0.0000
 FROZEN           2.2931 (ELEC + PAULI + DISP)
[ELEC + PAULI = 12.1995, DISP = -9.9064]
 POLARIZATION    -8.0931
 CHARGE TRANSFER -12.8586
 TOTAL           -18.6585     (PRP + FRZ + POL + CT)
--------------------
 
 --------------------------------------------------------------
 
                    Orbital Energies (a.u.)
 --------------------------------------------------------------
 
 Alpha MOs
 -- Occupied --
-19.3682 -19.2972 -10.3662 -10.3122  -1.1769  -1.1200  -0.8563  -0.7094
 -0.6725  -0.6142  -0.5598  -0.5379  -0.4892  -0.4765  -0.4545  -0.4517
 -0.4088  -0.3547
 -- Virtual --
  0.0207   0.0581   0.0630   0.0707   0.0836   0.1044   0.1086   0.1235
  0.1321   0.1421   0.1584   0.1649   0.1764   0.1783   0.1966   0.2110
  0.2217   0.2330   0.2389   0.2500   0.2610   0.2687   0.2812   0.2929
  0.2999   0.3023   0.3144   0.3157   0.3219   0.3352   0.3366   0.3400
  0.3536   0.3563   0.3625   0.3690   0.3698   0.3836   0.3903   0.3949
  0.4080   0.4146   0.4211   0.4433   0.4435   0.4535   0.4561   0.4690
  0.4814   0.4886   0.4921   0.5029   0.5220   0.5327   0.5510   0.5633
  0.5822   0.5949   0.6072   0.6247   0.6574   0.6780   0.6791   0.6869
  0.6918   0.6957   0.7223   0.7258   0.7542   0.7615   0.7664   0.7705
  0.7823   0.7894   0.8061   0.8108   0.8410   0.8542   0.8926   0.8940
  0.9194   0.9344   0.9793   0.9841   0.9893   0.9931   1.0550   1.0749
  1.0881   1.1479   1.1697   1.1801   1.1897   1.1997   1.2172   1.2202
  1.2263   1.2607   1.2694   1.2760   1.2981   1.3153   1.3221   1.3648
  1.3676   1.3755   1.3860   1.4368   1.4446   1.4540   1.4936   1.5068
  1.5961   1.6276   1.6402   1.6629   1.6686   1.6913   1.6929   1.7092
  1.7469   1.7923   1.9315   1.9404   1.9422   2.0105   2.0625   2.1000
  2.1258   2.1342   2.1914   2.2470   2.2820   2.2930   2.3223   2.3606
  2.4201   2.4452   2.5531   2.6137   2.7101   2.7380   2.7502   2.7896
  2.8531   2.8675   2.9027   2.9357   2.9626   2.9997   3.0101   3.0224
  3.0508   3.0719   3.0721   3.1437   3.1613   3.2082   3.2200   3.2256
  3.2391   3.2478   3.2584   3.3196   3.3208   3.3480   3.3636   3.3743
  3.3889   3.4155   3.4590   3.4680   3.4820   3.4822   3.5369   3.5635
  3.5721   3.6123   3.6310   3.6845   3.7102   3.7108   3.7925   3.7954
  3.8109   3.8878   3.9195   3.9299   3.9941   4.0070   4.0191   4.0271
  4.0643   4.0702   4.0984   4.1222   4.1340   4.1367   4.1692   4.1862
  4.2115   4.2170   4.2204   4.2493   4.2808   4.2907   4.3087   4.3241
  4.3851   4.3915   4.4122   4.4861   4.4948   4.5152   4.5513   4.6087
  4.6743   4.7095   4.7209   4.7761   4.8278   4.8614   4.8712   4.9405
  4.9656   4.9795   5.0125   5.0251   5.0580   5.1247   5.2479   5.2928
  5.3232   5.3846   5.4250   5.4416   5.4548   5.4919   5.5284   5.5793
  5.6528   5.6622   5.7354   5.7736   5.8028   5.8503   5.9855   6.1359
  6.2731   6.2855   6.5444   6.5508   6.6602   6.7117   6.7323   6.7973
  6.8745   6.8973   6.9119   6.9939   7.0806   7.1857   7.4073   7.5206
  7.6340   7.6890   7.8341   7.9013  23.7907  24.0930  44.3907  44.8649
 --------------------------------------------------------------
 
          Ground-State Mulliken Net Atomic Charges

     Atom                 Charge (a.u.)
  ----------------------------------------
      1 C                    -1.069570
      2 C                    -0.170290
      3 O                    -0.458152
      4 H                     0.244822
      5 H                     0.304221
      6 H                     0.272612
      7 H                     0.272593
      8 H                     0.292071
      9 H                     0.292040
     10 O                    -0.329892
     11 H                     0.174772
     12 H                     0.174774
  ----------------------------------------
  Sum of atomic charges =     0.000000

 -----------------------------------------------------------------
                    Cartesian Multipole Moments
 -----------------------------------------------------------------
    Charge (ESU x 10^10)
                -0.0000
    Dipole Moment (Debye)
         X      -2.8134      Y       0.4475      Z      -0.0007
       Tot       2.8487
    Quadrupole Moments (Debye-Ang)
        XX     -15.4471     XY       4.0805     YY     -29.5582
        XZ       0.0023     YZ      -0.0015     ZZ     -25.0771
    Octopole Moments (Debye-Ang^2)
       XXX     -56.7324    XXY     -12.4994    XYY      -3.2031
       YYY      -0.6621    XXZ      -0.0072    XYZ       0.0046
       YYZ      -0.0003    XZZ     -12.2879    YZZ      -0.7295
       ZZZ      -0.0013
    Hexadecapole Moments (Debye-Ang^3)
      XXXX    -488.9762   XXXY      39.6261   XXYY    -117.8454
      XYYY       1.9345   YYYY     -73.9076   XXXZ       0.0183
      XXYZ      -0.0157   XYYZ      -0.0021   YYYZ      -0.0010
      XXZZ     -87.1064   XYZZ       0.0898   YYZZ     -19.0248
      XZZZ       0.0076   YZZZ      -0.0014   ZZZZ     -42.8202
 -----------------------------------------------------------------
 Total job time:  662.69s(wall), 628.34s(cpu) 
 Thu Feb 27 15:47:42 2025

        *************************************************************
        *                                                           *
        *  Thank you very much for using Q-Chem.  Have a nice day.  *
        *                                                           *
        *************************************************************


