
Running Job 1 of 1 003_ethanol_WD_0.80_almo.inp
qchem 003_ethanol_WD_0.80_almo.inp_4181.0 /home/kchung25/scratch/qchem4181/ 1
/home/kchung25/qchem/exe/qcprog.exe_s 003_ethanol_WD_0.80_almo.inp_4181.0 /home/kchung25/scratch/qchem4181/
                  Welcome to Q-Chem
     A Quantum Leap Into The Future Of Chemistry


 Q-Chem 6.2, Q-Chem, Inc., Pleasanton, CA (2024)

 E. Epifanovsky,  A. T. B. Gilbert,  Xintian Feng,  Joonho Lee,  Yuezhi Mao,  
 N. Mardirossian,  P. Pokhilko,  A. White,  M. Wormit,  M. P. Coons,  
 A. L. Dempwolff,  Zhengting Gan,  D. Hait,  P. R. Horn,  L. D. Jacobson,  
 I. Kaliman,  J. Kussmann,  A. W. Lange,  Ka Un Lao,  D. S. Levine,  Jie Liu,  
 S. C. McKenzie,  A. F. Morrison,  K. D. Nanda,  F. Plasser,  D. R. Rehn,  
 M. L. Vidal,  Zhi-Qiang You,  Ying Zhu,  Huseyin Aksu,  B. Alam,  
 B. Albrecht,  A. Aldossary,  E. Alguire,  J. H. Andersen,  
 J. E. Arias-Martinez,  V. Athavale,  D. Barton,  K. Begam,  A. Behn,  
 N. Bellonzi,  Y. A. Bernard,  E. J. Berquist,  H. Burton,  A. Carreras,  
 K. Carter-Fenk,  Mathew Chow,  Romit Chakraborty,  Chandrima Chakravarty,  
 Junhan Chen,  A. D. Chien,  K. D. Closser,  V. Cofer-Shabica,  L. Cunha,  
 S. Dasgupta,  Jia Deng,  Joseph Dickinson,  M. de Wergifosse,  
 M. Diedenhofen,  Hainam Do,  Wenjie Dou,  S. Ehlert,  Po-Tung Fang,  
 S. Fatehi,  Qingguo Feng,  Jonathan Fetherolf,  T. Friedhoff,  
 Thomas Froitzheim,  Sarai Folkestad,  B. Ganoe,  J. Gayvert,  Qinghui Ge,  
 G. Gidofalvi,  M. Gimferrer,  M. Goldey,  Montgomery Gray,  J. Gomes,  
 C. Gonzalez-Espinoza,  S. Gulania,  A. Gunina,  J. A. Gyamfi,  
 M. W. D. Hanson-Heine,  P. H. P. Harbach,  A. W. Hauser,  M. F. Herbst,  
 M. Hernandez Vera,  M. Hodecker,  Z. C. Holden,  S. Houck,  Xunkun Huang,  
 Kerwin Hui,  B. C. Huynh,  K. Ikeda,  M. Ivanov,  Nayanthara K. Jayadev,  
 Hyunjun Ji,  Zuxin Jin,  Hanjie Jiang,  Subrata Jana,  B. Kaduk,  
 S. Kaehler,  R. Kang,  K. Khistyaev,  Jaehoon Kim,  Yongbin Kim,  
 P. Klunzinger,  Z. Koczor-Benda,  Joong Hoon Koh,  D. Kosenkov,  
 Saikiran Kotaru,  L. Koulias,  T. Kowalczyk,  C. M. Krauter,  K. Kue,  
 A. Kunitsa,  T. Kus,  A. Landau,  K. V. Lawler,  D. Lefrancois,  S. Lehtola,  
 Rain Li,  Shaozhi Li,  Tao E. Li,  Yi-Pei Li,  Jiashu Liang,  M. Liebenthal,  
 Hung-Hsuan Lin,  You-Sheng Lin,  Fenglai Liu,  Kuan-Yu Liu,  Xiao Liu,  
 M. Loipersberger,  A. Luenser,  C. Malbon,  Aniket Mandal,  Manisha,  
 A. Manjanath,  P. Manohar,  E. Mansoor,  S. F. Manzer,  Shan-Ping Mao,  
 A. V. Marenich,  T. Markovich,  S. Mason,  F. Matz,  S. A. Maurer,  
 Samuel May,  Alexandra McIsaac,  P. F. McLaughlin,  M. F. S. J. Menger,  
 J.-M. Mewes,  S. A. Mewes,  P. Morgante,  Mohammad Mostafanejad,  
 Madhubani Mukherjee,  J. W. Mullinax,  Quyen Nguyen,  Avik Kumar Ojha,  
 K. J. Oosterbaan,  Eno Paenurk,  Xiaoliang Pan,  G. Paran,  V. Parravicini,  
 Alexander C. Paul,  Suranjan K. Paul,  F. Pavosevic,  Zheng Pei,  S. Prager,  
 E. I. Proynov,  E. Ramos,  B. Rana,  A. E. Rask,  A. Rettig,  R. M. Richard,  
 F. Rob,  E. Rossomme,  T. Scheele,  M. Scheurer,  M. Schneider,  
 P. E. Schneider,  Tim K. Schramm,  N. Sergueev,  S. M. Sharada,  
 Hengyuan Shen,  W. Skomorowski,  D. W. Small,  C. J. Stein,  
 Alistair J. Sterling,  Yingli Su,  Yu-Chuan Su,  E. J. Sundstrom,  
 J. Talbot,  Zhen Tao,  J. Thirman,  Hung-Yi Tsai,  T. Tsuchimochi,  
 N. M. Tubman,  C. Utku,  S. P. Veccham,  O. Vydrov,  Rahel Weiss,  
 J. Wenzel,  Jonathan Wong,  J. Witte,  H. Wu,  Yanze Wu,  A. Yamada,  
 Chou-Hsun Yang,  Kun Yao,  S. Yeganeh,  S. R. Yost,  Qi Yu,  A. Zech,  
 F. Zeller,  Chongxiao Zhao,  Igor Ying Zhang,  Xing Zhang,  Yu Zhang,  
 D. Zuev,  A. Aspuru-Guzik,  A. T. Bell,  N. A. Besley,  K. B. Bravaya,  
 B. R. Brooks,  D. Casanova,  Jeng-Da Chai,  Hsing-Ta Chen,  S. Coriani,  
 C. J. Cramer,  A. E. DePrince, III,  R. A. DiStasio Jr.,  A. Dreuw,  
 B. D. Dunietz,  T. R. Furlani,  W. A. Goddard III,  S. Grimme,  
 S. Hammes-Schiffer,  T. Head-Gordon,  W. J. Hehre,  Chao-Ping Hsu,  
 T.-C. Jagau,  Yousung Jung,  A. Klamt,  Jing Kong,  D. S. Lambrecht,  
 Xiangyuan Li,  WanZhen Liang,  N. J. Mayhall,  C. W. McCurdy,  J. B. Neaton,  
 T. Neudecker,  C. Ochsenfeld,  J. A. Parkhill,  R. Peverati,  
 V. A. Rassolov,  Haisheng Ren,  Yihan Shao,  L. V. Slipchenko,  
 R. P. Steele,  J. E. Subotnik,  A. J. W. Thom,  A. Tkatchenko,  
 D. G. Truhlar,  T. Van Voorhis,  Fan Wang,  T. A. Wesolowski,  K. B. Whaley,  
 H. L. Woodcock III,  P. M. Zimmerman,  S. Faraji,  P. M. W. Gill,  
 M. Head-Gordon,  J. M. Herbert,  A. I. Krylov

 Contributors to earlier versions of Q-Chem not listed above: 
 R. D. Adamson,  B. Austin,  R. Baer,  J. Baker,  G. J. O. Beran,  
 K. Brandhorst,  S. T. Brown,  E. F. C. Byrd,  Arup K. Chakraborty,  
 G. K. L. Chan,  Chun-Min Chang,  Yunqing Chen,  C.-L. Cheng,  
 Siu Hung Chien,  D. M. Chipman,  D. L. Crittenden,  H. Dachsel,  
 R. J. Doerksen,  A. D. Dutoi,  R. G. Edgar,  J. Fosso-Tande,  
 L. Fusti-Molnar,  D. Ghosh,  A. Ghysels,  A. Golubeva-Zadorozhnaya,  
 J. Gonthier,  M. S. Gordon,  S. R. Gwaltney,  G. Hawkins,  J. E. Herr,  
 A. Heyden,  S. Hirata,  E. G. Hohenstein,  G. Kedziora,  F. J. Keil,  
 C. Kelley,  Jihan Kim,  R. A. King,  R. Z. Khaliullin,  P. P. Korambath,  
 W. Kurlancheek,  A. Laurent,  A. M. Lee,  M. S. Lee,  S. V. Levchenko,  
 Ching Yeh Lin,  D. Liotard,  E. Livshits,  R. C. Lochan,  I. Lotan,  
 L. A. Martinez-Martinez,  P. E. Maslen,  N. Nair,  D. P. O'Neill,  
 D. Neuhauser,  E. Neuscamman,  C. M. Oana,  R. Olivares-Amaya,  R. Olson,  
 T. M. Perrine,  B. Peters,  P. A. Pieniazek,  A. Prociuk,  Y. M. Rhee,  
 J. Ritchie,  M. A. Rohrdanz,  E. Rosta,  N. J. Russ,  H. F. Schaefer III,  
 M. W. Schmidt,  N. E. Schultz,  S. Sharma,  N. Shenvi,  C. D. Sherrill,  
 A. C. Simmonett,  A. Sodt,  T. Stein,  D. Stuck,  K. S. Thanthiriwatte,  
 V. Vanovschi,  L. Vogt,  Tao Wang,  A. Warshel,  M. A. Watson,  
 C. F. Williams,  Q. Wu,  X. Xu,  Jun Yang,  W. Zhang,  Yan Zhao

   Please cite Q-Chem as follows:
  "Software for the frontiers of quantum chemistry:
   An overview of developments in the Q-Chem 5 package"
   J. Chem. Phys. 155, 084801 (2021)
   https://doi.org/10.1063/5.0055522 (open access)

 Q-Chem 6.2.2 for Intel X86 EM64T Linux

 Parts of Q-Chem use Armadillo 9.900.5 (Nocturnal Misbehaviour).
 http://arma.sourceforge.net/

 Q-Chem begins on Thu Feb 27 15:24:01 2025  

 Host: 
0

     Scratch files written to /home/kchung25/scratch/qchem4181//
 Nov1724 |scratch|qcdevops|jenkins|workspace|build_RNUM -1
 Processing $rem in /home/kchung25/qchem/config/preferences:
 Processing $rem in /home/kchung25/.qchemrc:

 Q-Chem warning in module libgen/rem_setup.C, line 3433:

 Neither GIA nor STOLL is specified by user. Use STOLL as the default


 Checking the input file for inconsistencies... 	...done.

--------------------------------------------------------------
User input:
--------------------------------------------------------------
$molecule
0 1
--
0 1
C    1.194805   1.105056   0.217010
C    1.098581  -0.235452  -0.466153
O    0.230083  -1.136243   0.231245
H    0.554363  -1.221565   1.132406
H    0.209866   1.553945   0.306714
H    1.627020   1.001440   1.211082
H    1.834187   1.772416  -0.356643
H    0.656104  -0.131699  -1.451625
H    2.081430  -0.691441  -0.581209
--
0 1
O   -1.649539   0.066273   0.007700
H   -2.419290  -0.452789  -0.229801
H   -0.943111  -0.582489   0.144045
$end

$rem
JOBTYPE          eda
EDA2             1
METHOD           wB97M-V
BASIS            def2-TZVPPD
SYMMETRY         false
MEM_TOTAL        50000
MEM_STATIC       10000
THRESH           14
SCF_CONVERGENCE  8
XC_GRID          000099000590
NL_GRID          1
EDA_CLS_DISP     true
FD_MAT_VEC_PROD  FALSE
$end
--------------------------------------------------------------
 ----------------------------------------------------------------
             Standard Nuclear Orientation (Angstroms)
    I     Atom           X                Y                Z
 ----------------------------------------------------------------
    1      C       1.2979660169    -0.8527828539    -0.1953271007
    2      C       0.8589427537     0.4357940873     0.4525621505
    3      O      -0.2314289166     1.0479171817    -0.2463456476
    4      H       0.0417954463     1.1860693319    -1.1578229874
    5      H       0.4676084401    -1.5510369437    -0.2463221632
    6      H       1.6685903905    -0.6713561778    -1.2030210809
    7      H       2.1029071561    -1.3054291788     0.3795098700
    8      H       0.4783130735     0.2512048567     1.4519387091
    9      H       1.6858467340     1.1411886533     0.5287482486
   10      O      -1.7163409633    -0.6043341834     0.0604076739
   11      H      -2.5924804070    -0.3017941054     0.3037137841
   12      H      -1.2118744182     0.2044221763    -0.1126508898
 ----------------------------------------------------------------
 Molecular Point Group                 C1    NOp =  1
 Largest Abelian Subgroup              C1    NOp =  1
 Nuclear Repulsion Energy =         142.89613465 hartrees
 There are       18 alpha and       18 beta electrons
 Requested basis set is def2-TZVPPD
 There are 110 shells and 290 basis functions

 Q-Chem warning in module libmdc/get_mega.C, line 167:

 Allowed MEM_STATIC has been capped at MEM_STATIC=8191.
 Reduce the value of MEM_STATIC to silence this warning.


 Total QAlloc Memory Limit  50000 MB
 Mega-Array Size      8007 MB
 MEM_STATIC part      8191 MB


                       Distance Matrix (Angstroms)
             C (  1)   C (  2)   O (  3)   H (  4)   H (  5)   H (  6)
   C (  2)  1.507625
   O (  3)  2.440146  1.432507
   H (  4)  2.580946  1.955501  0.961524
   H (  5)  1.086118  2.142214  2.691322  2.916145
   H (  6)  1.088910  2.149946  2.735179  2.469521  1.769596
   H (  7)  1.087776  2.141178  3.373286  3.580382  1.768104  1.759285
   H (  8)  2.145718  1.085221  2.005655  2.806310  2.476344  3.052325
   H (  9)  2.156539  1.089567  2.070125  2.355725  3.054982  2.506919
   O ( 10)  3.035321  2.804949  2.242542  2.789386  2.399993  3.613655
   H ( 11)  3.960834  3.532494  2.774680  3.359946  3.350715  4.534705
   H ( 12)  2.724668  2.159000  1.300243  1.904653  2.433139  3.202026
             H (  7)   H (  8)   H (  9)   O ( 10)   H ( 11)
   H (  8)  2.492493
   H (  9)  2.486393  1.761388
   O ( 10)  3.896154  2.735838  3.852411
   H ( 11)  4.802051  3.324756  4.520721  0.958305
   H ( 12)  3.675548  2.303663  3.112188  0.968774  1.528296
 
 A cutoff of  1.0D-14 yielded   5983 shell pairs
 There are     41891 function pairs (     51745 Cartesian)
 Smallest overlap matrix eigenvalue = 9.78E-06

 Scale SEOQF with 1.000000e-01/1.000000e-01/1.000000e-01

 Standard Electronic Orientation quadrupole field applied
 Nucleus-field energy     =     0.0000000030 hartrees

 -----------------------------------------------------------------------
  General SCF calculation program by
  Eric Jon Sundstrom, Paul Horn, Yuezhi Mao, Dmitri Zuev, Alec White,
  David Stuck, Shaama M.S., Shane Yost, Joonho Lee, David Small,
  Daniel Levine, Susi Lehtola, Hugh Burton, Evgeny Epifanovsky,
  Bang C. Huynh
 -----------------------------------------------------------------------
================================================================
                 ALMO-EDA with the EDA2 driver                  
================================================================
 The second-generation ALMO-EDA (for DFT):                      
 P. R. Horn, Y. Mao and M. Head-Gordon, PCCP, 18, 23067 (2016)  
 Y. Mao et al. Annu. Rev. Phys. Chem. 72, 641 (2021)            
 Decomposition of the frozen energy:                            
 P. R. Horn, Y. Mao and M. Head-Gordon, JCP, 144, 114107 (2016) 
 FERF model for polarization:                                   
 P. R. Horn and M. Head-Gordon, JCP, 143, 114111 (2015)         
================================================================
 Using eda2 option set 1
 Option set summary: Frozen orbital wavefunction, initial wavefunction decomposition, and nDQ polarization.
--------------------------------
Printing EDA Options
--------------------------------
eda_child_super_basis      0
fragmo_guess_mode          0
child_mp                   1
child_mp_orders            232
cls_elec                   1
cls_disp                   1
scfmi_mode                 1
scfmi_occs                 0
scfmi_virts                0
frz_relax                  0
frz_relax_method           0
dc_pen_start               0
dc_pen_conv                0
dc_pen_increment           0
dc_pen_steps               0
dc_pen_thresh_factor       0
dc_pen_pre_newton_thresh   0
frz_ortho_decomp           1
frz_ortho_decomp_conv      6
plot_mo_ortho_frz          0
frgm_method                2
scfmi_freeze_ss            0
separate_rehyb             0
plot_diff_den              0
eda_nocv                   0
eda_vct_relax              1
disp_free_x                0
disp_free_c                0
eda_bsse                   0
eda_pct_a                  0
eda_covp                   0
eda_pol_a                  0
eda_vct_a                  0
has_sol                    0
print_level                1
--------------------------------
 Attempting to make child job directory: /home/kchung25/scratch/qchem4181//Frg1/
 Attempting to make child job directory: /home/kchung25/scratch/qchem4181//Frg2/
 Creating input file /home/kchung25/scratch/qchem4181/Frg1.input
 using default PutDataFrgm: nothing
 calling putenv with: QCSCRATCH=/home/kchung25/scratch/qchem4181/ 
 Spawning Job For Fragment 0
 Done Job For Fragment 0
 calling putenv with: QCSCRATCH=/home/kchung25/scratch 
 calling putenv with: QCTHREADS=2 
 Creating input file /home/kchung25/scratch/qchem4181/Frg2.input
 using default PutDataFrgm: nothing
 calling putenv with: QCSCRATCH=/home/kchung25/scratch/qchem4181/ 
 Spawning Job For Fragment 1
 Done Job For Fragment 1
 calling putenv with: QCSCRATCH=/home/kchung25/scratch 
 calling putenv with: QCTHREADS=2 
Doing General SCFMI
 Exchange:     0.1500 Hartree-Fock + 1.0000 wB97M-V + LR-HF
 Correlation:  1.0000 wB97M-V
 Using Euler-Maclaurin-Lebedev (99,590) quadrature formula
 Nonlocal Correlation:  VV10 with C = 0.0100 and b = 6.00 and scale = 1.00000
 Grid used for NLC:  SG-1 standard quadrature
performing fock build before subrot guess so that all methods have access
Printing subrot_rss_gen Method Specification:
Occupied Subspace Method is 0
Virtual Subspace Method is 0
Energy of the unrelaxed supersystem initial determinant -231.406886104567
write pseudocanon occs and virts to disk
write pseudocanon orbital energies to disk
Tolerance of ortho_decomp_scf: 1.00e-06
GDM subspace size: 20
Beginning the Orthogonal Decomposition of the Initial Supersystem Wavefunction
    1    -231.2311301878      4.06e-01     ortho_decomp Preconditoned Steepest Descent
    2    -231.2696936368      8.51e-03     ortho_decomp BFGS Step
    3    -231.2698024357      7.85e-04     ortho_decomp BFGS Step
    4    -231.2698027062      2.88e-05     ortho_decomp BFGS Step
    5    -231.2698027066      6.64e-07     ortho_decomp 00000 Convergence criterion met
 Hartree-Fock
 Hartree-Fock
 Hartree-Fock
 Exchange:     0.1500 Hartree-Fock + 1.0000 wB97M-V + LR-HF
 Correlation:  1.0000 wB97M-V
 Using Euler-Maclaurin-Lebedev (99,590) quadrature formula
 Nonlocal Correlation:  VV10 with C = 0.0100 and b = 6.00 and scale = 1.00000
 Grid used for NLC:  SG-1 standard quadrature
 Long-range K will be added via erf
 Coulomb attenuation parameter = 0.3 bohr**(-1)
 Nonlocal correlation = 1.428070633241e-01
Doing General SCFMI
 Exchange:     0.1500 Hartree-Fock + 1.0000 wB97M-V + LR-HF
 Correlation:  1.0000 wB97M-V
 Using Euler-Maclaurin-Lebedev (99,590) quadrature formula
 Nonlocal Correlation:  VV10 with C = 0.0100 and b = 6.00 and scale = 1.00000
 Grid used for NLC:  SG-1 standard quadrature
performing fock build at end of subrot_r(subrot) constructor so that all methods have access
<S^2> of initial wavefunction before polarization iterations 0.0000000000
Beginning iterations for the determination of the polarized wavefunction
Energy prior to optimization (guess energy) = -231.406886104567
Begin Timing: Total SCF Calculation
begin iterations for algorithm: DIIS         
the SCF tolerance is set to 1.00e-08
    1    -231.4068861046      1.12e-03     00000 
    2    -231.4217494685      4.02e-04     00000 
    3    -231.4231397537      2.47e-04     00000 
    4    -231.4236490744      7.52e-05     00000 
    5    -231.4237637656      3.05e-05     00000 
    6    -231.4237900334      1.68e-05     00000 
    7    -231.4237951592      7.30e-06     00000 
    8    -231.4237967374      1.62e-06     00000 
    9    -231.4237968252      5.37e-07     00000 
   10    -231.4237968324      1.95e-07     00000 
   11    -231.4237968329      1.02e-07     00000 
   12    -231.4237968329      4.99e-08     00000 
   13    -231.4237968329      1.77e-08     00000 
   14    -231.4237968329      5.95e-09     00000 Convergence criterion met
write pseudocanon occs and virts to disk
write pseudocanon orbital energies to disk
Timing for Total SCF: 134.00s (wall), 267.70s (cpu)
<S^2> of polarized wavefunction after polarization iterations 0.0000000000
relaxing scfmi constraint to allow all rotations in the entire AO span
Doing General SCFMI
 Exchange:     0.1500 Hartree-Fock + 1.0000 wB97M-V + LR-HF
 Correlation:  1.0000 wB97M-V
 Using Euler-Maclaurin-Lebedev (99,590) quadrature formula
 Nonlocal Correlation:  VV10 with C = 0.0100 and b = 6.00 and scale = 1.00000
 Grid used for NLC:  SG-1 standard quadrature
performing fock build at end of subrot_r(subrot) constructor so that all methods have access
<S^2> of polarized wavefunction before ct-allowed iterations 0.0000000000
Beginning iterations for the determination of the CT-Allowed wavefunction
Energy prior to optimization (guess energy) = -231.423796832945
Begin Timing: Total SCF Calculation
begin iterations for algorithm: DIIS         
the SCF tolerance is set to 1.00e-08
    1    -231.4237968329      8.17e-04     00000 
    2    -231.4491501681      1.21e-04     00000 
    3    -231.4498345569      7.00e-05     00000 
    4    -231.4499567317      2.03e-05     00000 
    5    -231.4499713273      4.67e-06     00000 
    6    -231.4499722014      1.21e-06     00000 
    7    -231.4499722648      6.04e-07     00000 
    8    -231.4499722790      1.10e-07     00000 
    9    -231.4499722796      3.93e-08     00000 
   10    -231.4499722797      8.43e-09     00000 Convergence criterion met
write pseudocanon occs and virts to disk
write pseudocanon orbital energies to disk
Timing for Total SCF: 93.00s (wall), 187.61s (cpu)
<S^2> of ct_allowed wavefunction after ct-allowed iterations 0.0000000000

================================
        Results of EDA2         
================================
Basic EDA Quantities
--------------------
Fragment Energies (Ha):
1   -155.0294066314
2    -76.4363016388
--------------------
  E_prp (kJ/mol) = 0.0000
  E_frz (kJ/mol) = 154.4394
  E_pol (kJ/mol) = -44.3996
  E_vct (kJ/mol) = -68.7245
  E_int (kJ/mol) = 41.3153
--------------------


Decomposition of frozen interaction energy
--------------------
  --------------------
  Orthogonal Frozen Decomposition:
  --------------------
     E_elec   (ELEC)   (kJ/mol) = -258.6683
     E_pauli  (PAULI)  (kJ/mol) = 442.7212
     E_disp   (DISP)   (kJ/mol) = -29.6135
  --------------------
  Classical Frozen Decomposition:
  --------------------
     E_cls_elec  (CLS ELEC)  (kJ/mol) = -162.7769
     E_mod_pauli (MOD PAULI) (kJ/mol) = 347.9102 (FRZ - CLS ELEC - CLS DISP)
     E_cls_disp  (CLS DISP)  (kJ/mol) = -30.6938
  --------------------
--------------------

Simplified EDA Summary (kJ/mol)
--------------------
 PREPARATION      0.0000
 FROZEN           154.4394 (ELEC + PAULI + DISP)
[ELEC + PAULI = 185.1333, DISP = -30.6938]
 POLARIZATION    -44.3996
 CHARGE TRANSFER -68.7245
 TOTAL           41.3153     (PRP + FRZ + POL + CT)
--------------------
 
 --------------------------------------------------------------
 
                    Orbital Energies (a.u.)
 --------------------------------------------------------------
 
 Alpha MOs
 -- Occupied --
-19.3660 -19.2663 -10.4015 -10.3343  -1.2008  -1.0832  -0.8864  -0.7601
 -0.6768  -0.6033  -0.5766  -0.5558  -0.5100  -0.4842  -0.4526  -0.4387
 -0.3965  -0.3754
 -- Virtual --
  0.0291   0.0574   0.0602   0.0619   0.0942   0.1028   0.1086   0.1164
  0.1273   0.1470   0.1594   0.1686   0.1740   0.1827   0.1964   0.2060
  0.2274   0.2445   0.2528   0.2619   0.2702   0.2792   0.2820   0.2892
  0.2930   0.2965   0.3094   0.3203   0.3208   0.3275   0.3464   0.3483
  0.3511   0.3616   0.3640   0.3743   0.3787   0.3974   0.4016   0.4118
  0.4151   0.4329   0.4363   0.4539   0.4616   0.4655   0.4736   0.4831
  0.4948   0.5114   0.5171   0.5247   0.5304   0.5571   0.5799   0.5833
  0.5941   0.6088   0.6261   0.6440   0.6517   0.6634   0.6836   0.6877
  0.7102   0.7164   0.7286   0.7299   0.7516   0.7617   0.7693   0.7756
  0.7952   0.8019   0.8095   0.8357   0.8437   0.8612   0.8669   0.9086
  0.9447   0.9609   0.9868   1.0160   1.0203   1.0522   1.0708   1.1051
  1.1266   1.1520   1.1584   1.1732   1.2024   1.2209   1.2435   1.2581
  1.2662   1.2834   1.3046   1.3130   1.3212   1.3390   1.3504   1.3966
  1.4224   1.4427   1.4689   1.4839   1.5041   1.5102   1.5378   1.5590
  1.5974   1.6322   1.6370   1.6766   1.6840   1.6991   1.7194   1.7498
  1.7847   1.8954   1.9374   1.9458   1.9857   2.0340   2.0578   2.1244
  2.1414   2.2030   2.2543   2.2667   2.3123   2.3530   2.4016   2.4132
  2.4458   2.4754   2.5202   2.6892   2.7509   2.7759   2.8183   2.8452
  2.8558   2.8775   2.9258   2.9527   2.9787   2.9954   3.0233   3.0288
  3.0531   3.0684   3.1147   3.1374   3.1589   3.1874   3.2327   3.2402
  3.2636   3.2754   3.3016   3.3169   3.3286   3.3456   3.4029   3.4258
  3.4460   3.4657   3.5164   3.5502   3.5539   3.5848   3.6091   3.6177
  3.6440   3.6757   3.7225   3.7307   3.7543   3.7685   3.8108   3.8303
  3.8602   3.9078   3.9530   3.9889   3.9940   4.0161   4.0468   4.0590
  4.0732   4.1119   4.1198   4.1445   4.1769   4.1933   4.2009   4.2134
  4.2329   4.2569   4.2786   4.3026   4.3121   4.3624   4.3730   4.4062
  4.4345   4.4491   4.4663   4.5119   4.5437   4.6000   4.6102   4.6917
  4.6943   4.7419   4.7821   4.8134   4.8405   4.8657   4.9579   4.9737
  5.0090   5.0277   5.0601   5.1202   5.1651   5.2107   5.2508   5.3141
  5.4049   5.4270   5.4483   5.4830   5.4973   5.5339   5.5713   5.6290
  5.6400   5.7012   5.7578   5.8101   5.8129   5.8625   6.0598   6.2477
  6.5015   6.5451   6.6046   6.6718   6.7345   6.7981   6.8468   6.8888
  6.9814   7.0588   7.1548   7.1793   7.2494   7.3730   7.5942   7.6977
  7.7529   7.9150   7.9886   8.5012  23.8101  24.0858  44.6678  45.0044
 --------------------------------------------------------------
 
          Ground-State Mulliken Net Atomic Charges

     Atom                 Charge (a.u.)
  ----------------------------------------
      1 C                    -0.917414
      2 C                    -0.241213
      3 O                    -0.300018
      4 H                     0.139787
      5 H                     0.298073
      6 H                     0.283976
      7 H                     0.277554
      8 H                     0.270932
      9 H                     0.304424
     10 O                    -0.431335
     11 H                     0.088996
     12 H                     0.226238
  ----------------------------------------
  Sum of atomic charges =     0.000000

 -----------------------------------------------------------------
                    Cartesian Multipole Moments
 -----------------------------------------------------------------
    Charge (ESU x 10^10)
                -0.0000
    Dipole Moment (Debye)
         X       2.0574      Y       1.7525      Z      -0.5815
       Tot       2.7645
    Quadrupole Moments (Debye-Ang)
        XX     -25.1751     XY      -2.0894     YY     -29.0344
        XZ      -0.7628     YZ      -1.7703     ZZ     -24.9341
    Octopole Moments (Debye-Ang^2)
       XXX     -16.6945    XXY       5.4183    XYY       2.0164
       YYY       3.2485    XXZ       3.7790    XYZ      -0.0387
       YYZ      -2.4441    XZZ      -0.5379    YZZ       4.9001
       ZZZ      -3.5986
    Hexadecapole Moments (Debye-Ang^3)
      XXXX    -242.9941   XXXY      -2.6049   XXYY     -74.0332
      XYYY       1.7069   YYYY    -143.8219   XXXZ      -8.7673
      XXYZ      -3.0878   XYYZ       0.6350   YYYZ      -5.4723
      XXZZ     -59.2814   XYZZ      -0.5877   YYZZ     -30.5742
      XZZZ      -1.3095   YZZZ      -6.5610   ZZZZ     -54.9328
 -----------------------------------------------------------------
 Total job time:  758.47s(wall), 788.67s(cpu) 
 Thu Feb 27 15:36:39 2025

        *************************************************************
        *                                                           *
        *  Thank you very much for using Q-Chem.  Have a nice day.  *
        *                                                           *
        *************************************************************


