
Running Job 1 of 1 003_ethanol_WD_1.10_almo.inp
qchem 003_ethanol_WD_1.10_almo.inp_6715.0 /home/kchung25/scratch/qchem6715/ 1
/home/kchung25/qchem/exe/qcprog.exe_s 003_ethanol_WD_1.10_almo.inp_6715.0 /home/kchung25/scratch/qchem6715/
                  Welcome to Q-Chem
     A Quantum Leap Into The Future Of Chemistry


 Q-Chem 6.2, Q-Chem, Inc., Pleasanton, CA (2024)

 E. Epifanovsky,  A. T. B. Gilbert,  Xintian Feng,  Joonho Lee,  Yuezhi Mao,  
 N. Mardirossian,  P. Pokhilko,  A. White,  M. Wormit,  M. P. Coons,  
 A. L. Dempwolff,  Zhengting Gan,  D. Hait,  P. R. Horn,  L. D. Jacobson,  
 I. Kaliman,  J. Kussmann,  A. W. Lange,  Ka Un Lao,  D. S. Levine,  Jie Liu,  
 S. C. McKenzie,  A. F. Morrison,  K. D. Nanda,  F. Plasser,  D. R. Rehn,  
 M. L. Vidal,  Zhi-Qiang You,  Ying Zhu,  Huseyin Aksu,  B. Alam,  
 B. Albrecht,  A. Aldossary,  E. Alguire,  J. H. Andersen,  
 J. E. Arias-Martinez,  V. Athavale,  D. Barton,  K. Begam,  A. Behn,  
 N. Bellonzi,  Y. A. Bernard,  E. J. Berquist,  H. Burton,  A. Carreras,  
 K. Carter-Fenk,  Mathew Chow,  Romit Chakraborty,  Chandrima Chakravarty,  
 Junhan Chen,  A. D. Chien,  K. D. Closser,  V. Cofer-Shabica,  L. Cunha,  
 S. Dasgupta,  Jia Deng,  Joseph Dickinson,  M. de Wergifosse,  
 M. Diedenhofen,  Hainam Do,  Wenjie Dou,  S. Ehlert,  Po-Tung Fang,  
 S. Fatehi,  Qingguo Feng,  Jonathan Fetherolf,  T. Friedhoff,  
 Thomas Froitzheim,  Sarai Folkestad,  B. Ganoe,  J. Gayvert,  Qinghui Ge,  
 G. Gidofalvi,  M. Gimferrer,  M. Goldey,  Montgomery Gray,  J. Gomes,  
 C. Gonzalez-Espinoza,  S. Gulania,  A. Gunina,  J. A. Gyamfi,  
 M. W. D. Hanson-Heine,  P. H. P. Harbach,  A. W. Hauser,  M. F. Herbst,  
 M. Hernandez Vera,  M. Hodecker,  Z. C. Holden,  S. Houck,  Xunkun Huang,  
 Kerwin Hui,  B. C. Huynh,  K. Ikeda,  M. Ivanov,  Nayanthara K. Jayadev,  
 Hyunjun Ji,  Zuxin Jin,  Hanjie Jiang,  Subrata Jana,  B. Kaduk,  
 S. Kaehler,  R. Kang,  K. Khistyaev,  Jaehoon Kim,  Yongbin Kim,  
 P. Klunzinger,  Z. Koczor-Benda,  Joong Hoon Koh,  D. Kosenkov,  
 Saikiran Kotaru,  L. Koulias,  T. Kowalczyk,  C. M. Krauter,  K. Kue,  
 A. Kunitsa,  T. Kus,  A. Landau,  K. V. Lawler,  D. Lefrancois,  S. Lehtola,  
 Rain Li,  Shaozhi Li,  Tao E. Li,  Yi-Pei Li,  Jiashu Liang,  M. Liebenthal,  
 Hung-Hsuan Lin,  You-Sheng Lin,  Fenglai Liu,  Kuan-Yu Liu,  Xiao Liu,  
 M. Loipersberger,  A. Luenser,  C. Malbon,  Aniket Mandal,  Manisha,  
 A. Manjanath,  P. Manohar,  E. Mansoor,  S. F. Manzer,  Shan-Ping Mao,  
 A. V. Marenich,  T. Markovich,  S. Mason,  F. Matz,  S. A. Maurer,  
 Samuel May,  Alexandra McIsaac,  P. F. McLaughlin,  M. F. S. J. Menger,  
 J.-M. Mewes,  S. A. Mewes,  P. Morgante,  Mohammad Mostafanejad,  
 Madhubani Mukherjee,  J. W. Mullinax,  Quyen Nguyen,  Avik Kumar Ojha,  
 K. J. Oosterbaan,  Eno Paenurk,  Xiaoliang Pan,  G. Paran,  V. Parravicini,  
 Alexander C. Paul,  Suranjan K. Paul,  F. Pavosevic,  Zheng Pei,  S. Prager,  
 E. I. Proynov,  E. Ramos,  B. Rana,  A. E. Rask,  A. Rettig,  R. M. Richard,  
 F. Rob,  E. Rossomme,  T. Scheele,  M. Scheurer,  M. Schneider,  
 P. E. Schneider,  Tim K. Schramm,  N. Sergueev,  S. M. Sharada,  
 Hengyuan Shen,  W. Skomorowski,  D. W. Small,  C. J. Stein,  
 Alistair J. Sterling,  Yingli Su,  Yu-Chuan Su,  E. J. Sundstrom,  
 J. Talbot,  Zhen Tao,  J. Thirman,  Hung-Yi Tsai,  T. Tsuchimochi,  
 N. M. Tubman,  C. Utku,  S. P. Veccham,  O. Vydrov,  Rahel Weiss,  
 J. Wenzel,  Jonathan Wong,  J. Witte,  H. Wu,  Yanze Wu,  A. Yamada,  
 Chou-Hsun Yang,  Kun Yao,  S. Yeganeh,  S. R. Yost,  Qi Yu,  A. Zech,  
 F. Zeller,  Chongxiao Zhao,  Igor Ying Zhang,  Xing Zhang,  Yu Zhang,  
 D. Zuev,  A. Aspuru-Guzik,  A. T. Bell,  N. A. Besley,  K. B. Bravaya,  
 B. R. Brooks,  D. Casanova,  Jeng-Da Chai,  Hsing-Ta Chen,  S. Coriani,  
 C. J. Cramer,  A. E. DePrince, III,  R. A. DiStasio Jr.,  A. Dreuw,  
 B. D. Dunietz,  T. R. Furlani,  W. A. Goddard III,  S. Grimme,  
 S. Hammes-Schiffer,  T. Head-Gordon,  W. J. Hehre,  Chao-Ping Hsu,  
 T.-C. Jagau,  Yousung Jung,  A. Klamt,  Jing Kong,  D. S. Lambrecht,  
 Xiangyuan Li,  WanZhen Liang,  N. J. Mayhall,  C. W. McCurdy,  J. B. Neaton,  
 T. Neudecker,  C. Ochsenfeld,  J. A. Parkhill,  R. Peverati,  
 V. A. Rassolov,  Haisheng Ren,  Yihan Shao,  L. V. Slipchenko,  
 R. P. Steele,  J. E. Subotnik,  A. J. W. Thom,  A. Tkatchenko,  
 D. G. Truhlar,  T. Van Voorhis,  Fan Wang,  T. A. Wesolowski,  K. B. Whaley,  
 H. L. Woodcock III,  P. M. Zimmerman,  S. Faraji,  P. M. W. Gill,  
 M. Head-Gordon,  J. M. Herbert,  A. I. Krylov

 Contributors to earlier versions of Q-Chem not listed above: 
 R. D. Adamson,  B. Austin,  R. Baer,  J. Baker,  G. J. O. Beran,  
 K. Brandhorst,  S. T. Brown,  E. F. C. Byrd,  Arup K. Chakraborty,  
 G. K. L. Chan,  Chun-Min Chang,  Yunqing Chen,  C.-L. Cheng,  
 Siu Hung Chien,  D. M. Chipman,  D. L. Crittenden,  H. Dachsel,  
 R. J. Doerksen,  A. D. Dutoi,  R. G. Edgar,  J. Fosso-Tande,  
 L. Fusti-Molnar,  D. Ghosh,  A. Ghysels,  A. Golubeva-Zadorozhnaya,  
 J. Gonthier,  M. S. Gordon,  S. R. Gwaltney,  G. Hawkins,  J. E. Herr,  
 A. Heyden,  S. Hirata,  E. G. Hohenstein,  G. Kedziora,  F. J. Keil,  
 C. Kelley,  Jihan Kim,  R. A. King,  R. Z. Khaliullin,  P. P. Korambath,  
 W. Kurlancheek,  A. Laurent,  A. M. Lee,  M. S. Lee,  S. V. Levchenko,  
 Ching Yeh Lin,  D. Liotard,  E. Livshits,  R. C. Lochan,  I. Lotan,  
 L. A. Martinez-Martinez,  P. E. Maslen,  N. Nair,  D. P. O'Neill,  
 D. Neuhauser,  E. Neuscamman,  C. M. Oana,  R. Olivares-Amaya,  R. Olson,  
 T. M. Perrine,  B. Peters,  P. A. Pieniazek,  A. Prociuk,  Y. M. Rhee,  
 J. Ritchie,  M. A. Rohrdanz,  E. Rosta,  N. J. Russ,  H. F. Schaefer III,  
 M. W. Schmidt,  N. E. Schultz,  S. Sharma,  N. Shenvi,  C. D. Sherrill,  
 A. C. Simmonett,  A. Sodt,  T. Stein,  D. Stuck,  K. S. Thanthiriwatte,  
 V. Vanovschi,  L. Vogt,  Tao Wang,  A. Warshel,  M. A. Watson,  
 C. F. Williams,  Q. Wu,  X. Xu,  Jun Yang,  W. Zhang,  Yan Zhao

   Please cite Q-Chem as follows:
  "Software for the frontiers of quantum chemistry:
   An overview of developments in the Q-Chem 5 package"
   J. Chem. Phys. 155, 084801 (2021)
   https://doi.org/10.1063/5.0055522 (open access)

 Q-Chem 6.2.2 for Intel X86 EM64T Linux

 Parts of Q-Chem use Armadillo 9.900.5 (Nocturnal Misbehaviour).
 http://arma.sourceforge.net/

 Q-Chem begins on Thu Feb 27 17:08:28 2025  

 Host: 
0

     Scratch files written to /home/kchung25/scratch/qchem6715//
 Nov1724 |scratch|qcdevops|jenkins|workspace|build_RNUM -1
 Processing $rem in /home/kchung25/qchem/config/preferences:
 Processing $rem in /home/kchung25/.qchemrc:

 Q-Chem warning in module libgen/rem_setup.C, line 3433:

 Neither GIA nor STOLL is specified by user. Use STOLL as the default


 Checking the input file for inconsistencies... 	...done.

--------------------------------------------------------------
User input:
--------------------------------------------------------------
$molecule
0 1
--
0 1
C    1.194805   1.105056   0.217010
C    1.098581  -0.235452  -0.466153
O    0.230083  -1.136243   0.231245
H    0.554363  -1.221565   1.132406
H    0.209866   1.553945   0.306714
H    1.627020   1.001440   1.211082
H    1.834187   1.772416  -0.356643
H    0.656104  -0.131699  -1.451625
H    2.081430  -0.691441  -0.581209
--
0 1
O   -2.354398   0.517217  -0.076129
H   -3.124149  -0.001845  -0.313630
H   -1.647970  -0.131545   0.060216
$end

$rem
JOBTYPE          eda
EDA2             1
METHOD           wB97M-V
BASIS            def2-TZVPPD
SYMMETRY         false
MEM_TOTAL        50000
MEM_STATIC       10000
THRESH           14
SCF_CONVERGENCE  8
XC_GRID          000099000590
NL_GRID          1
EDA_CLS_DISP     true
FD_MAT_VEC_PROD  FALSE
$end
--------------------------------------------------------------
 ----------------------------------------------------------------
             Standard Nuclear Orientation (Angstroms)
    I     Atom           X                Y                Z
 ----------------------------------------------------------------
    1      C      -1.1854982953    -1.0847425996     0.2075469377
    2      C      -1.1319943991     0.2584270314    -0.4750694379
    3      O      -0.3089239869     1.1923706754     0.2337193449
    4      H      -0.6487400681     1.2651074319     1.1302475961
    5      H      -0.1851922836    -1.4949900194     0.3111708398
    6      H      -1.6351568804    -0.9979131213     1.1954705286
    7      H      -1.7904381946    -1.7765119731    -0.3744834120
    8      H      -0.6721964809     0.1718604639    -1.4542516207
    9      H      -2.1301366638     0.6758478935    -0.6040184645
   10      O       2.3418934951    -0.3593865876    -0.0367743900
   11      H       3.0941037890     0.1891872497    -0.2639199507
   12      H       1.6089568836     0.2614327815     0.0893598453
 ----------------------------------------------------------------
 Molecular Point Group                 C1    NOp =  1
 Largest Abelian Subgroup              C1    NOp =  1
 Nuclear Repulsion Energy =         131.54399562 hartrees
 There are       18 alpha and       18 beta electrons
 Requested basis set is def2-TZVPPD
 There are 110 shells and 290 basis functions

 Q-Chem warning in module libmdc/get_mega.C, line 167:

 Allowed MEM_STATIC has been capped at MEM_STATIC=8191.
 Reduce the value of MEM_STATIC to silence this warning.


 Total QAlloc Memory Limit  50000 MB
 Mega-Array Size      8007 MB
 MEM_STATIC part      8191 MB


                       Distance Matrix (Angstroms)
             C (  1)   C (  2)   O (  3)   H (  4)   H (  5)   H (  6)
   C (  2)  1.507625
   O (  3)  2.440146  1.432507
   H (  4)  2.580946  1.955501  0.961524
   H (  5)  1.086118  2.142214  2.691322  2.916145
   H (  6)  1.088910  2.149946  2.735179  2.469521  1.769596
   H (  7)  1.087776  2.141178  3.373286  3.580382  1.768104  1.759285
   H (  8)  2.145718  1.085221  2.005655  2.806310  2.476344  3.052325
   H (  9)  2.156539  1.089567  2.070125  2.355725  3.054982  2.506919
   O ( 10)  3.609477  3.555516  3.083497  3.597890  2.792279  4.212253
   H ( 11)  4.490008  4.231936  3.582544  4.136446  3.731081  5.089689
   H ( 12)  3.104052  2.798464  2.136762  2.681046  2.520554  3.651535
             H (  7)   H (  8)   H (  9)   O ( 10)   H ( 11)
   H (  8)  2.492493
   H (  9)  2.486393  1.761388
   O ( 10)  4.381604  3.372863  4.625206
   H ( 11)  5.266398  3.949963  5.257870  0.958305
   H ( 12)  3.990521  2.755798  3.825354  0.968774  1.528296
 
 A cutoff of  1.0D-14 yielded   5877 shell pairs
 There are     41097 function pairs (     50724 Cartesian)
 Smallest overlap matrix eigenvalue = 1.08E-05

 Scale SEOQF with 1.000000e-01/1.000000e-01/1.000000e-01

 Standard Electronic Orientation quadrupole field applied
 Nucleus-field energy     =     0.0000000042 hartrees

 -----------------------------------------------------------------------
  General SCF calculation program by
  Eric Jon Sundstrom, Paul Horn, Yuezhi Mao, Dmitri Zuev, Alec White,
  David Stuck, Shaama M.S., Shane Yost, Joonho Lee, David Small,
  Daniel Levine, Susi Lehtola, Hugh Burton, Evgeny Epifanovsky,
  Bang C. Huynh
 -----------------------------------------------------------------------
================================================================
                 ALMO-EDA with the EDA2 driver                  
================================================================
 The second-generation ALMO-EDA (for DFT):                      
 P. R. Horn, Y. Mao and M. Head-Gordon, PCCP, 18, 23067 (2016)  
 Y. Mao et al. Annu. Rev. Phys. Chem. 72, 641 (2021)            
 Decomposition of the frozen energy:                            
 P. R. Horn, Y. Mao and M. Head-Gordon, JCP, 144, 114107 (2016) 
 FERF model for polarization:                                   
 P. R. Horn and M. Head-Gordon, JCP, 143, 114111 (2015)         
================================================================
 Using eda2 option set 1
 Option set summary: Frozen orbital wavefunction, initial wavefunction decomposition, and nDQ polarization.
--------------------------------
Printing EDA Options
--------------------------------
eda_child_super_basis      0
fragmo_guess_mode          0
child_mp                   1
child_mp_orders            232
cls_elec                   1
cls_disp                   1
scfmi_mode                 1
scfmi_occs                 0
scfmi_virts                0
frz_relax                  0
frz_relax_method           0
dc_pen_start               0
dc_pen_conv                0
dc_pen_increment           0
dc_pen_steps               0
dc_pen_thresh_factor       0
dc_pen_pre_newton_thresh   0
frz_ortho_decomp           1
frz_ortho_decomp_conv      6
plot_mo_ortho_frz          0
frgm_method                2
scfmi_freeze_ss            0
separate_rehyb             0
plot_diff_den              0
eda_nocv                   0
eda_vct_relax              1
disp_free_x                0
disp_free_c                0
eda_bsse                   0
eda_pct_a                  0
eda_covp                   0
eda_pol_a                  0
eda_vct_a                  0
has_sol                    0
print_level                1
--------------------------------
 Attempting to make child job directory: /home/kchung25/scratch/qchem6715//Frg1/
 Attempting to make child job directory: /home/kchung25/scratch/qchem6715//Frg2/
 Creating input file /home/kchung25/scratch/qchem6715/Frg1.input
 using default PutDataFrgm: nothing
 calling putenv with: QCSCRATCH=/home/kchung25/scratch/qchem6715/ 
 Spawning Job For Fragment 0
 Done Job For Fragment 0
 calling putenv with: QCSCRATCH=/home/kchung25/scratch 
 calling putenv with: QCTHREADS=2 
 Creating input file /home/kchung25/scratch/qchem6715/Frg2.input
 using default PutDataFrgm: nothing
 calling putenv with: QCSCRATCH=/home/kchung25/scratch/qchem6715/ 
 Spawning Job For Fragment 1
 Done Job For Fragment 1
 calling putenv with: QCSCRATCH=/home/kchung25/scratch 
 calling putenv with: QCTHREADS=2 
Doing General SCFMI
 Exchange:     0.1500 Hartree-Fock + 1.0000 wB97M-V + LR-HF
 Correlation:  1.0000 wB97M-V
 Using Euler-Maclaurin-Lebedev (99,590) quadrature formula
 Nonlocal Correlation:  VV10 with C = 0.0100 and b = 6.00 and scale = 1.00000
 Grid used for NLC:  SG-1 standard quadrature
performing fock build before subrot guess so that all methods have access
Printing subrot_rss_gen Method Specification:
Occupied Subspace Method is 0
Virtual Subspace Method is 0
Energy of the unrelaxed supersystem initial determinant -231.471651073202
write pseudocanon occs and virts to disk
write pseudocanon orbital energies to disk
Tolerance of ortho_decomp_scf: 1.00e-06
GDM subspace size: 20
Beginning the Orthogonal Decomposition of the Initial Supersystem Wavefunction
    1    -231.4416759699      1.08e-01     ortho_decomp Preconditoned Steepest Descent
    2    -231.4445976926      2.05e-03     ortho_decomp BFGS Step
    3    -231.4446045821      1.58e-04     ortho_decomp BFGS Step
    4    -231.4446045926      4.96e-06     ortho_decomp BFGS Step
    5    -231.4446045927      1.35e-07     ortho_decomp 00000 Convergence criterion met
 Hartree-Fock
 Hartree-Fock
 Hartree-Fock
 Exchange:     0.1500 Hartree-Fock + 1.0000 wB97M-V + LR-HF
 Correlation:  1.0000 wB97M-V
 Using Euler-Maclaurin-Lebedev (99,590) quadrature formula
 Nonlocal Correlation:  VV10 with C = 0.0100 and b = 6.00 and scale = 1.00000
 Grid used for NLC:  SG-1 standard quadrature
 Long-range K will be added via erf
 Coulomb attenuation parameter = 0.3 bohr**(-1)
 Nonlocal correlation = 1.445436756524e-01
Doing General SCFMI
 Exchange:     0.1500 Hartree-Fock + 1.0000 wB97M-V + LR-HF
 Correlation:  1.0000 wB97M-V
 Using Euler-Maclaurin-Lebedev (99,590) quadrature formula
 Nonlocal Correlation:  VV10 with C = 0.0100 and b = 6.00 and scale = 1.00000
 Grid used for NLC:  SG-1 standard quadrature
performing fock build at end of subrot_r(subrot) constructor so that all methods have access
<S^2> of initial wavefunction before polarization iterations 0.0000000000
Beginning iterations for the determination of the polarized wavefunction
Energy prior to optimization (guess energy) = -231.471651073202
Begin Timing: Total SCF Calculation
begin iterations for algorithm: DIIS         
the SCF tolerance is set to 1.00e-08
    1    -231.4716510732      2.92e-04     00000 
    2    -231.4730935770      8.25e-05     00000 
    3    -231.4732126424      4.13e-05     00000 
    4    -231.4732299841      1.97e-05     00000 
    5    -231.4732340062      6.03e-06     00000 
    6    -231.4732347832      2.05e-06     00000 
    7    -231.4732348473      8.74e-07     00000 
    8    -231.4732348586      2.76e-07     00000 
    9    -231.4732348595      9.06e-08     00000 
   10    -231.4732348596      2.64e-08     00000 
   11    -231.4732348596      6.90e-09     00000 Convergence criterion met
write pseudocanon occs and virts to disk
write pseudocanon orbital energies to disk
Timing for Total SCF: 92.00s (wall), 184.79s (cpu)
<S^2> of polarized wavefunction after polarization iterations 0.0000000000
relaxing scfmi constraint to allow all rotations in the entire AO span
Doing General SCFMI
 Exchange:     0.1500 Hartree-Fock + 1.0000 wB97M-V + LR-HF
 Correlation:  1.0000 wB97M-V
 Using Euler-Maclaurin-Lebedev (99,590) quadrature formula
 Nonlocal Correlation:  VV10 with C = 0.0100 and b = 6.00 and scale = 1.00000
 Grid used for NLC:  SG-1 standard quadrature
performing fock build at end of subrot_r(subrot) constructor so that all methods have access
<S^2> of polarized wavefunction before ct-allowed iterations 0.0000000000
Beginning iterations for the determination of the CT-Allowed wavefunction
Energy prior to optimization (guess energy) = -231.473234859630
Begin Timing: Total SCF Calculation
begin iterations for algorithm: DIIS         
the SCF tolerance is set to 1.00e-08
    1    -231.4732348596      1.82e-04     00000 
    2    -231.4749011993      2.66e-05     00000 
    3    -231.4749628413      9.39e-06     00000 
    4    -231.4749654375      6.02e-06     00000 
    5    -231.4749666296      4.33e-07     00000 
    6    -231.4749666520      2.07e-07     00000 
    7    -231.4749666545      4.80e-08     00000 
    8    -231.4749666547      1.26e-08     00000 
    9    -231.4749666547      7.04e-09     00000 Convergence criterion met
write pseudocanon occs and virts to disk
write pseudocanon orbital energies to disk
Timing for Total SCF: 74.00s (wall), 148.71s (cpu)
<S^2> of ct_allowed wavefunction after ct-allowed iterations 0.0000000000

================================
        Results of EDA2         
================================
Basic EDA Quantities
--------------------
Fragment Energies (Ha):
1   -155.0294065240
2    -76.4363017059
--------------------
  E_prp (kJ/mol) = 0.0000
  E_frz (kJ/mol) = -15.6031
  E_pol (kJ/mol) = -4.1583
  E_vct (kJ/mol) = -4.5469
  E_int (kJ/mol) = -24.3083
--------------------


Decomposition of frozen interaction energy
--------------------
  --------------------
  Orthogonal Frozen Decomposition:
  --------------------
     E_elec   (ELEC)   (kJ/mol) = -50.3208
     E_pauli  (PAULI)  (kJ/mol) = 44.0752
     E_disp   (DISP)   (kJ/mol) = -9.3575
  --------------------
  Classical Frozen Decomposition:
  --------------------
     E_cls_elec  (CLS ELEC)  (kJ/mol) = -28.0576
     E_mod_pauli (MOD PAULI) (kJ/mol) = 20.2349 (FRZ - CLS ELEC - CLS DISP)
     E_cls_disp  (CLS DISP)  (kJ/mol) = -7.7804
  --------------------
--------------------

Simplified EDA Summary (kJ/mol)
--------------------
 PREPARATION      0.0000
 FROZEN           -15.6031 (ELEC + PAULI + DISP)
[ELEC + PAULI = -7.8227, DISP = -7.7804]
 POLARIZATION    -4.1583
 CHARGE TRANSFER -4.5469
 TOTAL           -24.3083     (PRP + FRZ + POL + CT)
--------------------
 
 --------------------------------------------------------------
 
                    Orbital Energies (a.u.)
 --------------------------------------------------------------
 
 Alpha MOs
 -- Occupied --
-19.3466 -19.3165 -10.3933 -10.3347  -1.1620  -1.1211  -0.8798  -0.7501
 -0.6339  -0.6125  -0.5707  -0.5522  -0.4994  -0.4819  -0.4758  -0.4409
 -0.4092  -0.3961
 -- Virtual --
  0.0320   0.0552   0.0595   0.0623   0.0923   0.1049   0.1053   0.1137
  0.1264   0.1489   0.1495   0.1601   0.1645   0.1832   0.1957   0.2018
  0.2237   0.2319   0.2432   0.2530   0.2635   0.2745   0.2760   0.2804
  0.2820   0.2895   0.3100   0.3142   0.3146   0.3242   0.3363   0.3421
  0.3448   0.3555   0.3606   0.3675   0.3751   0.3798   0.3861   0.4026
  0.4057   0.4149   0.4291   0.4401   0.4550   0.4653   0.4655   0.4797
  0.4855   0.4966   0.5023   0.5093   0.5170   0.5282   0.5500   0.5622
  0.5840   0.5941   0.6096   0.6280   0.6411   0.6559   0.6614   0.6738
  0.6875   0.7082   0.7200   0.7325   0.7446   0.7590   0.7617   0.7693
  0.7779   0.7898   0.8116   0.8232   0.8292   0.8623   0.8706   0.8935
  0.9119   0.9506   0.9656   0.9695   0.9926   1.0071   1.0325   1.0587
  1.0871   1.1226   1.1306   1.1444   1.1726   1.1917   1.2001   1.2114
  1.2259   1.2411   1.2586   1.2740   1.2930   1.3174   1.3264   1.3455
  1.3589   1.3990   1.4067   1.4424   1.4503   1.4549   1.4869   1.5118
  1.5547   1.6008   1.6331   1.6457   1.6653   1.6750   1.7046   1.7420
  1.7522   1.7890   1.9081   1.9345   1.9758   2.0098   2.0241   2.0522
  2.0937   2.1407   2.1713   2.2020   2.2255   2.2757   2.3395   2.3528
  2.3953   2.4555   2.4748   2.6677   2.7076   2.7486   2.7859   2.8089
  2.8341   2.8584   2.8660   2.9044   2.9320   2.9713   2.9758   3.0131
  3.0259   3.0438   3.0679   3.0869   3.1306   3.1597   3.1990   3.2305
  3.2520   3.2600   3.2751   3.2922   3.3057   3.3122   3.3234   3.3568
  3.3867   3.4186   3.4372   3.4838   3.5156   3.5263   3.5434   3.5843
  3.5898   3.6092   3.6410   3.7010   3.7200   3.7336   3.7438   3.7677
  3.7912   3.8364   3.8818   3.9083   3.9520   3.9731   3.9857   4.0241
  4.0272   4.0485   4.0728   4.1092   4.1253   4.1455   4.1547   4.1705
  4.1942   4.2036   4.2209   4.2423   4.2662   4.2884   4.3069   4.3338
  4.3577   4.3667   4.4221   4.4497   4.4755   4.4838   4.5257   4.5884
  4.6706   4.6798   4.7236   4.7782   4.7991   4.8034   4.8596   4.9379
  4.9656   5.0040   5.0202   5.0401   5.0652   5.1619   5.2150   5.2803
  5.2965   5.3476   5.4170   5.4314   5.4443   5.4793   5.5081   5.5881
  5.5974   5.6738   5.7269   5.7325   5.7504   5.7936   5.8764   6.0658
  6.2561   6.3065   6.5610   6.6345   6.6453   6.6902   6.7326   6.7907
  6.8306   6.8629   6.9224   6.9663   7.0735   7.1658   7.3613   7.5330
  7.5654   7.7082   7.7611   7.9326  23.7381  24.0715  44.4362  44.7079
 --------------------------------------------------------------
 
          Ground-State Mulliken Net Atomic Charges

     Atom                 Charge (a.u.)
  ----------------------------------------
      1 C                    -0.848005
      2 C                    -0.235577
      3 O                    -0.404643
      4 H                     0.141689
      5 H                     0.233957
      6 H                     0.277310
      7 H                     0.263809
      8 H                     0.262969
      9 H                     0.318645
     10 O                    -0.376933
     11 H                     0.116625
     12 H                     0.250153
  ----------------------------------------
  Sum of atomic charges =     0.000000

 -----------------------------------------------------------------
                    Cartesian Multipole Moments
 -----------------------------------------------------------------
    Charge (ESU x 10^10)
                 0.0000
    Dipole Moment (Debye)
         X      -1.7157      Y       0.8537      Z       0.4002
       Tot       1.9576
    Quadrupole Moments (Debye-Ang)
        XX     -24.1524     XY       3.6300     YY     -29.2925
        XZ      -1.8141     YZ       1.5078     ZZ     -25.3586
    Octopole Moments (Debye-Ang^2)
       XXX      19.8738    XXY      12.8947    XYY       0.3970
       YYY       1.3484    XXZ      -3.9765    XYZ      -2.0422
       YYZ       2.3361    XZZ      -1.0323    YZZ       4.7707
       ZZZ       3.2356
    Hexadecapole Moments (Debye-Ang^3)
      XXXX    -324.7519   XXXY      22.2439   XXYY     -93.5553
      XYYY      -1.5890   YYYY    -165.3201   XXXZ     -17.3205
      XXYZ       1.2464   XYYZ      -0.8946   YYYZ       6.8145
      XXZZ     -78.7504   XYZZ      -1.7944   YYZZ     -33.1143
      XZZZ      -4.5442   YZZZ       5.9494   ZZZZ     -57.1134
 -----------------------------------------------------------------
 Total job time:  666.26s(wall), 634.26s(cpu) 
 Thu Feb 27 17:19:34 2025

        *************************************************************
        *                                                           *
        *  Thank you very much for using Q-Chem.  Have a nice day.  *
        *                                                           *
        *************************************************************


