
Running Job 1 of 1 003_ethanol_WD_1.20_almo.inp
qchem 003_ethanol_WD_1.20_almo.inp_7144.0 /home/kchung25/scratch/qchem7144/ 1
/home/kchung25/qchem/exe/qcprog.exe_s 003_ethanol_WD_1.20_almo.inp_7144.0 /home/kchung25/scratch/qchem7144/
                  Welcome to Q-Chem
     A Quantum Leap Into The Future Of Chemistry


 Q-Chem 6.2, Q-Chem, Inc., Pleasanton, CA (2024)

 E. Epifanovsky,  A. T. B. Gilbert,  Xintian Feng,  Joonho Lee,  Yuezhi Mao,  
 N. Mardirossian,  P. Pokhilko,  A. White,  M. Wormit,  M. P. Coons,  
 A. L. Dempwolff,  Zhengting Gan,  D. Hait,  P. R. Horn,  L. D. Jacobson,  
 I. Kaliman,  J. Kussmann,  A. W. Lange,  Ka Un Lao,  D. S. Levine,  Jie Liu,  
 S. C. McKenzie,  A. F. Morrison,  K. D. Nanda,  F. Plasser,  D. R. Rehn,  
 M. L. Vidal,  Zhi-Qiang You,  Ying Zhu,  Huseyin Aksu,  B. Alam,  
 B. Albrecht,  A. Aldossary,  E. Alguire,  J. H. Andersen,  
 J. E. Arias-Martinez,  V. Athavale,  D. Barton,  K. Begam,  A. Behn,  
 N. Bellonzi,  Y. A. Bernard,  E. J. Berquist,  H. Burton,  A. Carreras,  
 K. Carter-Fenk,  Mathew Chow,  Romit Chakraborty,  Chandrima Chakravarty,  
 Junhan Chen,  A. D. Chien,  K. D. Closser,  V. Cofer-Shabica,  L. Cunha,  
 S. Dasgupta,  Jia Deng,  Joseph Dickinson,  M. de Wergifosse,  
 M. Diedenhofen,  Hainam Do,  Wenjie Dou,  S. Ehlert,  Po-Tung Fang,  
 S. Fatehi,  Qingguo Feng,  Jonathan Fetherolf,  T. Friedhoff,  
 Thomas Froitzheim,  Sarai Folkestad,  B. Ganoe,  J. Gayvert,  Qinghui Ge,  
 G. Gidofalvi,  M. Gimferrer,  M. Goldey,  Montgomery Gray,  J. Gomes,  
 C. Gonzalez-Espinoza,  S. Gulania,  A. Gunina,  J. A. Gyamfi,  
 M. W. D. Hanson-Heine,  P. H. P. Harbach,  A. W. Hauser,  M. F. Herbst,  
 M. Hernandez Vera,  M. Hodecker,  Z. C. Holden,  S. Houck,  Xunkun Huang,  
 Kerwin Hui,  B. C. Huynh,  K. Ikeda,  M. Ivanov,  Nayanthara K. Jayadev,  
 Hyunjun Ji,  Zuxin Jin,  Hanjie Jiang,  Subrata Jana,  B. Kaduk,  
 S. Kaehler,  R. Kang,  K. Khistyaev,  Jaehoon Kim,  Yongbin Kim,  
 P. Klunzinger,  Z. Koczor-Benda,  Joong Hoon Koh,  D. Kosenkov,  
 Saikiran Kotaru,  L. Koulias,  T. Kowalczyk,  C. M. Krauter,  K. Kue,  
 A. Kunitsa,  T. Kus,  A. Landau,  K. V. Lawler,  D. Lefrancois,  S. Lehtola,  
 Rain Li,  Shaozhi Li,  Tao E. Li,  Yi-Pei Li,  Jiashu Liang,  M. Liebenthal,  
 Hung-Hsuan Lin,  You-Sheng Lin,  Fenglai Liu,  Kuan-Yu Liu,  Xiao Liu,  
 M. Loipersberger,  A. Luenser,  C. Malbon,  Aniket Mandal,  Manisha,  
 A. Manjanath,  P. Manohar,  E. Mansoor,  S. F. Manzer,  Shan-Ping Mao,  
 A. V. Marenich,  T. Markovich,  S. Mason,  F. Matz,  S. A. Maurer,  
 Samuel May,  Alexandra McIsaac,  P. F. McLaughlin,  M. F. S. J. Menger,  
 J.-M. Mewes,  S. A. Mewes,  P. Morgante,  Mohammad Mostafanejad,  
 Madhubani Mukherjee,  J. W. Mullinax,  Quyen Nguyen,  Avik Kumar Ojha,  
 K. J. Oosterbaan,  Eno Paenurk,  Xiaoliang Pan,  G. Paran,  V. Parravicini,  
 Alexander C. Paul,  Suranjan K. Paul,  F. Pavosevic,  Zheng Pei,  S. Prager,  
 E. I. Proynov,  E. Ramos,  B. Rana,  A. E. Rask,  A. Rettig,  R. M. Richard,  
 F. Rob,  E. Rossomme,  T. Scheele,  M. Scheurer,  M. Schneider,  
 P. E. Schneider,  Tim K. Schramm,  N. Sergueev,  S. M. Sharada,  
 Hengyuan Shen,  W. Skomorowski,  D. W. Small,  C. J. Stein,  
 Alistair J. Sterling,  Yingli Su,  Yu-Chuan Su,  E. J. Sundstrom,  
 J. Talbot,  Zhen Tao,  J. Thirman,  Hung-Yi Tsai,  T. Tsuchimochi,  
 N. M. Tubman,  C. Utku,  S. P. Veccham,  O. Vydrov,  Rahel Weiss,  
 J. Wenzel,  Jonathan Wong,  J. Witte,  H. Wu,  Yanze Wu,  A. Yamada,  
 Chou-Hsun Yang,  Kun Yao,  S. Yeganeh,  S. R. Yost,  Qi Yu,  A. Zech,  
 F. Zeller,  Chongxiao Zhao,  Igor Ying Zhang,  Xing Zhang,  Yu Zhang,  
 D. Zuev,  A. Aspuru-Guzik,  A. T. Bell,  N. A. Besley,  K. B. Bravaya,  
 B. R. Brooks,  D. Casanova,  Jeng-Da Chai,  Hsing-Ta Chen,  S. Coriani,  
 C. J. Cramer,  A. E. DePrince, III,  R. A. DiStasio Jr.,  A. Dreuw,  
 B. D. Dunietz,  T. R. Furlani,  W. A. Goddard III,  S. Grimme,  
 S. Hammes-Schiffer,  T. Head-Gordon,  W. J. Hehre,  Chao-Ping Hsu,  
 T.-C. Jagau,  Yousung Jung,  A. Klamt,  Jing Kong,  D. S. Lambrecht,  
 Xiangyuan Li,  WanZhen Liang,  N. J. Mayhall,  C. W. McCurdy,  J. B. Neaton,  
 T. Neudecker,  C. Ochsenfeld,  J. A. Parkhill,  R. Peverati,  
 V. A. Rassolov,  Haisheng Ren,  Yihan Shao,  L. V. Slipchenko,  
 R. P. Steele,  J. E. Subotnik,  A. J. W. Thom,  A. Tkatchenko,  
 D. G. Truhlar,  T. Van Voorhis,  Fan Wang,  T. A. Wesolowski,  K. B. Whaley,  
 H. L. Woodcock III,  P. M. Zimmerman,  S. Faraji,  P. M. W. Gill,  
 M. Head-Gordon,  J. M. Herbert,  A. I. Krylov

 Contributors to earlier versions of Q-Chem not listed above: 
 R. D. Adamson,  B. Austin,  R. Baer,  J. Baker,  G. J. O. Beran,  
 K. Brandhorst,  S. T. Brown,  E. F. C. Byrd,  Arup K. Chakraborty,  
 G. K. L. Chan,  Chun-Min Chang,  Yunqing Chen,  C.-L. Cheng,  
 Siu Hung Chien,  D. M. Chipman,  D. L. Crittenden,  H. Dachsel,  
 R. J. Doerksen,  A. D. Dutoi,  R. G. Edgar,  J. Fosso-Tande,  
 L. Fusti-Molnar,  D. Ghosh,  A. Ghysels,  A. Golubeva-Zadorozhnaya,  
 J. Gonthier,  M. S. Gordon,  S. R. Gwaltney,  G. Hawkins,  J. E. Herr,  
 A. Heyden,  S. Hirata,  E. G. Hohenstein,  G. Kedziora,  F. J. Keil,  
 C. Kelley,  Jihan Kim,  R. A. King,  R. Z. Khaliullin,  P. P. Korambath,  
 W. Kurlancheek,  A. Laurent,  A. M. Lee,  M. S. Lee,  S. V. Levchenko,  
 Ching Yeh Lin,  D. Liotard,  E. Livshits,  R. C. Lochan,  I. Lotan,  
 L. A. Martinez-Martinez,  P. E. Maslen,  N. Nair,  D. P. O'Neill,  
 D. Neuhauser,  E. Neuscamman,  C. M. Oana,  R. Olivares-Amaya,  R. Olson,  
 T. M. Perrine,  B. Peters,  P. A. Pieniazek,  A. Prociuk,  Y. M. Rhee,  
 J. Ritchie,  M. A. Rohrdanz,  E. Rosta,  N. J. Russ,  H. F. Schaefer III,  
 M. W. Schmidt,  N. E. Schultz,  S. Sharma,  N. Shenvi,  C. D. Sherrill,  
 A. C. Simmonett,  A. Sodt,  T. Stein,  D. Stuck,  K. S. Thanthiriwatte,  
 V. Vanovschi,  L. Vogt,  Tao Wang,  A. Warshel,  M. A. Watson,  
 C. F. Williams,  Q. Wu,  X. Xu,  Jun Yang,  W. Zhang,  Yan Zhao

   Please cite Q-Chem as follows:
  "Software for the frontiers of quantum chemistry:
   An overview of developments in the Q-Chem 5 package"
   J. Chem. Phys. 155, 084801 (2021)
   https://doi.org/10.1063/5.0055522 (open access)

 Q-Chem 6.2.2 for Intel X86 EM64T Linux

 Parts of Q-Chem use Armadillo 9.900.5 (Nocturnal Misbehaviour).
 http://arma.sourceforge.net/

 Q-Chem begins on Thu Feb 27 17:19:34 2025  

 Host: 
0

     Scratch files written to /home/kchung25/scratch/qchem7144//
 Nov1724 |scratch|qcdevops|jenkins|workspace|build_RNUM -1
 Processing $rem in /home/kchung25/qchem/config/preferences:
 Processing $rem in /home/kchung25/.qchemrc:

 Q-Chem warning in module libgen/rem_setup.C, line 3433:

 Neither GIA nor STOLL is specified by user. Use STOLL as the default


 Checking the input file for inconsistencies... 	...done.

--------------------------------------------------------------
User input:
--------------------------------------------------------------
$molecule
0 1
--
0 1
C    1.194805   1.105056   0.217010
C    1.098581  -0.235452  -0.466153
O    0.230083  -1.136243   0.231245
H    0.554363  -1.221565   1.132406
H    0.209866   1.553945   0.306714
H    1.627020   1.001440   1.211082
H    1.834187   1.772416  -0.356643
H    0.656104  -0.131699  -1.451625
H    2.081430  -0.691441  -0.581209
--
0 1
O   -2.589351   0.667531  -0.104072
H   -3.359102   0.148469  -0.341573
H   -1.882923   0.018769   0.032273
$end

$rem
JOBTYPE          eda
EDA2             1
METHOD           wB97M-V
BASIS            def2-TZVPPD
SYMMETRY         false
MEM_TOTAL        50000
MEM_STATIC       10000
THRESH           14
SCF_CONVERGENCE  8
XC_GRID          000099000590
NL_GRID          1
EDA_CLS_DISP     true
FD_MAT_VEC_PROD  FALSE
$end
--------------------------------------------------------------
 ----------------------------------------------------------------
             Standard Nuclear Orientation (Angstroms)
    I     Atom           X                Y                Z
 ----------------------------------------------------------------
    1      C      -1.1873111239    -1.1197990208     0.2099784107
    2      C      -1.2110568440     0.2207409204    -0.4794570451
    3      O      -0.4531041439     1.2071769308     0.2308449144
    4      H      -0.8042325822     1.2632065908     1.1242082263
    5      H      -0.1645061898    -1.4670101298     0.3238532905
    6      H      -1.6497013557    -1.0560340790     1.1937743898
    7      H      -1.7435514938    -1.8504391841    -0.3731322809
    8      H      -0.7386361338     0.1579071570    -1.4544320366
    9      H      -2.2319332408     0.5751207891    -0.6186773710
   10      O       2.5399648913    -0.3053660668    -0.0318291137
   11      H       3.2587778494     0.2874660480    -0.2558976339
   12      H       1.7691049752     0.2696444984     0.0850488165
 ----------------------------------------------------------------
 Molecular Point Group                 C1    NOp =  1
 Largest Abelian Subgroup              C1    NOp =  1
 Nuclear Repulsion Energy =         128.75014286 hartrees
 There are       18 alpha and       18 beta electrons
 Requested basis set is def2-TZVPPD
 There are 110 shells and 290 basis functions

 Q-Chem warning in module libmdc/get_mega.C, line 167:

 Allowed MEM_STATIC has been capped at MEM_STATIC=8191.
 Reduce the value of MEM_STATIC to silence this warning.


 Total QAlloc Memory Limit  50000 MB
 Mega-Array Size      8007 MB
 MEM_STATIC part      8191 MB


                       Distance Matrix (Angstroms)
             C (  1)   C (  2)   O (  3)   H (  4)   H (  5)   H (  6)
   C (  2)  1.507625
   O (  3)  2.440146  1.432507
   H (  4)  2.580946  1.955501  0.961524
   H (  5)  1.086118  2.142214  2.691322  2.916145
   H (  6)  1.088910  2.149946  2.735179  2.469521  1.769596
   H (  7)  1.087776  2.141178  3.373286  3.580382  1.768104  1.759285
   H (  8)  2.145718  1.085221  2.005655  2.806310  2.476344  3.052325
   H (  9)  2.156539  1.089567  2.070125  2.355725  3.054982  2.506919
   O ( 10)  3.822873  3.814095  3.363814  3.870465  2.964809  4.429324
   H ( 11)  4.686698  4.475919  3.854978  4.400547  3.890138  5.291475
   H ( 12)  3.269030  3.033550  2.416286  2.947725  2.609952  3.830787
             H (  7)   H (  8)   H (  9)   O ( 10)   H ( 11)
   H (  8)  2.492493
   H (  9)  2.486393  1.761388
   O ( 10)  4.566427  3.603838  4.887807
   H ( 11)  5.441294  4.175235  5.510196  0.958305
   H ( 12)  4.128370  2.944699  4.073924  0.968774  1.528296
 
 A cutoff of  1.0D-14 yielded   5821 shell pairs
 There are     40501 function pairs (     49913 Cartesian)
 Smallest overlap matrix eigenvalue = 1.11E-05

 Scale SEOQF with 1.000000e-01/1.000000e-01/1.000000e-01

 Standard Electronic Orientation quadrupole field applied
 Nucleus-field energy     =     0.0000000047 hartrees

 -----------------------------------------------------------------------
  General SCF calculation program by
  Eric Jon Sundstrom, Paul Horn, Yuezhi Mao, Dmitri Zuev, Alec White,
  David Stuck, Shaama M.S., Shane Yost, Joonho Lee, David Small,
  Daniel Levine, Susi Lehtola, Hugh Burton, Evgeny Epifanovsky,
  Bang C. Huynh
 -----------------------------------------------------------------------
================================================================
                 ALMO-EDA with the EDA2 driver                  
================================================================
 The second-generation ALMO-EDA (for DFT):                      
 P. R. Horn, Y. Mao and M. Head-Gordon, PCCP, 18, 23067 (2016)  
 Y. Mao et al. Annu. Rev. Phys. Chem. 72, 641 (2021)            
 Decomposition of the frozen energy:                            
 P. R. Horn, Y. Mao and M. Head-Gordon, JCP, 144, 114107 (2016) 
 FERF model for polarization:                                   
 P. R. Horn and M. Head-Gordon, JCP, 143, 114111 (2015)         
================================================================
 Using eda2 option set 1
 Option set summary: Frozen orbital wavefunction, initial wavefunction decomposition, and nDQ polarization.
--------------------------------
Printing EDA Options
--------------------------------
eda_child_super_basis      0
fragmo_guess_mode          0
child_mp                   1
child_mp_orders            232
cls_elec                   1
cls_disp                   1
scfmi_mode                 1
scfmi_occs                 0
scfmi_virts                0
frz_relax                  0
frz_relax_method           0
dc_pen_start               0
dc_pen_conv                0
dc_pen_increment           0
dc_pen_steps               0
dc_pen_thresh_factor       0
dc_pen_pre_newton_thresh   0
frz_ortho_decomp           1
frz_ortho_decomp_conv      6
plot_mo_ortho_frz          0
frgm_method                2
scfmi_freeze_ss            0
separate_rehyb             0
plot_diff_den              0
eda_nocv                   0
eda_vct_relax              1
disp_free_x                0
disp_free_c                0
eda_bsse                   0
eda_pct_a                  0
eda_covp                   0
eda_pol_a                  0
eda_vct_a                  0
has_sol                    0
print_level                1
--------------------------------
 Attempting to make child job directory: /home/kchung25/scratch/qchem7144//Frg1/
 Attempting to make child job directory: /home/kchung25/scratch/qchem7144//Frg2/
 Creating input file /home/kchung25/scratch/qchem7144/Frg1.input
 using default PutDataFrgm: nothing
 calling putenv with: QCSCRATCH=/home/kchung25/scratch/qchem7144/ 
 Spawning Job For Fragment 0
 Done Job For Fragment 0
 calling putenv with: QCSCRATCH=/home/kchung25/scratch 
 calling putenv with: QCTHREADS=2 
 Creating input file /home/kchung25/scratch/qchem7144/Frg2.input
 using default PutDataFrgm: nothing
 calling putenv with: QCSCRATCH=/home/kchung25/scratch/qchem7144/ 
 Spawning Job For Fragment 1
 Done Job For Fragment 1
 calling putenv with: QCSCRATCH=/home/kchung25/scratch 
 calling putenv with: QCTHREADS=2 
Doing General SCFMI
 Exchange:     0.1500 Hartree-Fock + 1.0000 wB97M-V + LR-HF
 Correlation:  1.0000 wB97M-V
 Using Euler-Maclaurin-Lebedev (99,590) quadrature formula
 Nonlocal Correlation:  VV10 with C = 0.0100 and b = 6.00 and scale = 1.00000
 Grid used for NLC:  SG-1 standard quadrature
performing fock build before subrot guess so that all methods have access
Printing subrot_rss_gen Method Specification:
Occupied Subspace Method is 0
Virtual Subspace Method is 0
Energy of the unrelaxed supersystem initial determinant -231.471415813988
write pseudocanon occs and virts to disk
write pseudocanon orbital energies to disk
Tolerance of ortho_decomp_scf: 1.00e-06
GDM subspace size: 20
Beginning the Orthogonal Decomposition of the Initial Supersystem Wavefunction
    1    -231.4545094359      6.93e-02     ortho_decomp Preconditoned Steepest Descent
    2    -231.4557695705      1.29e-03     ortho_decomp BFGS Step
    3    -231.4557723885      9.29e-05     ortho_decomp BFGS Step
    4    -231.4557723921      2.81e-06     ortho_decomp BFGS Step
    5    -231.4557723921      8.08e-08     ortho_decomp 00000 Convergence criterion met
 Hartree-Fock
 Hartree-Fock
 Hartree-Fock
 Exchange:     0.1500 Hartree-Fock + 1.0000 wB97M-V + LR-HF
 Correlation:  1.0000 wB97M-V
 Using Euler-Maclaurin-Lebedev (99,590) quadrature formula
 Nonlocal Correlation:  VV10 with C = 0.0100 and b = 6.00 and scale = 1.00000
 Grid used for NLC:  SG-1 standard quadrature
 Long-range K will be added via erf
 Coulomb attenuation parameter = 0.3 bohr**(-1)
 Nonlocal correlation = 1.449556141846e-01
Doing General SCFMI
 Exchange:     0.1500 Hartree-Fock + 1.0000 wB97M-V + LR-HF
 Correlation:  1.0000 wB97M-V
 Using Euler-Maclaurin-Lebedev (99,590) quadrature formula
 Nonlocal Correlation:  VV10 with C = 0.0100 and b = 6.00 and scale = 1.00000
 Grid used for NLC:  SG-1 standard quadrature
performing fock build at end of subrot_r(subrot) constructor so that all methods have access
<S^2> of initial wavefunction before polarization iterations 0.0000000000
Beginning iterations for the determination of the polarized wavefunction
Energy prior to optimization (guess energy) = -231.471415813987
Begin Timing: Total SCF Calculation
begin iterations for algorithm: DIIS         
the SCF tolerance is set to 1.00e-08
    1    -231.4714158140      2.09e-04     00000 
    2    -231.4721837664      6.04e-05     00000 
    3    -231.4722470122      3.35e-05     00000 
    4    -231.4722572251      1.50e-05     00000 
    5    -231.4722595404      4.22e-06     00000 
    6    -231.4722598877      1.33e-06     00000 
    7    -231.4722599163      3.91e-07     00000 
    8    -231.4722599193      8.97e-08     00000 
    9    -231.4722599194      3.55e-08     00000 
   10    -231.4722599194      1.57e-08     00000 
   11    -231.4722599194      2.87e-09     00000 Convergence criterion met
write pseudocanon occs and virts to disk
write pseudocanon orbital energies to disk
Timing for Total SCF: 90.00s (wall), 178.66s (cpu)
<S^2> of polarized wavefunction after polarization iterations 0.0000000000
relaxing scfmi constraint to allow all rotations in the entire AO span
Doing General SCFMI
 Exchange:     0.1500 Hartree-Fock + 1.0000 wB97M-V + LR-HF
 Correlation:  1.0000 wB97M-V
 Using Euler-Maclaurin-Lebedev (99,590) quadrature formula
 Nonlocal Correlation:  VV10 with C = 0.0100 and b = 6.00 and scale = 1.00000
 Grid used for NLC:  SG-1 standard quadrature
performing fock build at end of subrot_r(subrot) constructor so that all methods have access
<S^2> of polarized wavefunction before ct-allowed iterations 0.0000000000
Beginning iterations for the determination of the CT-Allowed wavefunction
Energy prior to optimization (guess energy) = -231.472259919413
Begin Timing: Total SCF Calculation
begin iterations for algorithm: DIIS         
the SCF tolerance is set to 1.00e-08
    1    -231.4722599194      1.19e-04     00000 
    2    -231.4729953608      1.66e-05     00000 
    3    -231.4730226128      4.57e-06     00000 
    4    -231.4730233893      3.90e-06     00000 
    5    -231.4730238537      2.72e-07     00000 
    6    -231.4730238644      1.03e-07     00000 
    7    -231.4730238651      3.91e-08     00000 
    8    -231.4730238652      1.19e-08     00000 
    9    -231.4730238652      4.93e-09     00000 Convergence criterion met
write pseudocanon occs and virts to disk
write pseudocanon orbital energies to disk
Timing for Total SCF: 72.00s (wall), 143.63s (cpu)
<S^2> of ct_allowed wavefunction after ct-allowed iterations 0.0000000000

================================
        Results of EDA2         
================================
Basic EDA Quantities
--------------------
Fragment Energies (Ha):
1   -155.0294062509
2    -76.4363017277
--------------------
  E_prp (kJ/mol) = 0.0000
  E_frz (kJ/mol) = -14.9861
  E_pol (kJ/mol) = -2.2162
  E_vct (kJ/mol) = -2.0058
  E_int (kJ/mol) = -19.2081
--------------------


Decomposition of frozen interaction energy
--------------------
  --------------------
  Orthogonal Frozen Decomposition:
  --------------------
     E_elec   (ELEC)   (kJ/mol) = -29.2077
     E_pauli  (PAULI)  (kJ/mol) = 20.3244
     E_disp   (DISP)   (kJ/mol) = -6.1028
  --------------------
  Classical Frozen Decomposition:
  --------------------
     E_cls_elec  (CLS ELEC)  (kJ/mol) = -17.8738
     E_mod_pauli (MOD PAULI) (kJ/mol) = 7.9723 (FRZ - CLS ELEC - CLS DISP)
     E_cls_disp  (CLS DISP)  (kJ/mol) = -5.0846
  --------------------
--------------------

Simplified EDA Summary (kJ/mol)
--------------------
 PREPARATION      0.0000
 FROZEN           -14.9861 (ELEC + PAULI + DISP)
[ELEC + PAULI = -9.9015, DISP = -5.0846]
 POLARIZATION    -2.2162
 CHARGE TRANSFER -2.0058
 TOTAL           -19.2081     (PRP + FRZ + POL + CT)
--------------------
 
 --------------------------------------------------------------
 
                    Orbital Energies (a.u.)
 --------------------------------------------------------------
 
 Alpha MOs
 -- Occupied --
-19.3429 -19.3222 -10.3922 -10.3351  -1.1580  -1.1262  -0.8792  -0.7490
 -0.6312  -0.6163  -0.5696  -0.5511  -0.4965  -0.4851  -0.4779  -0.4393
 -0.4136  -0.3933
 -- Virtual --
  0.0320   0.0538   0.0597   0.0624   0.0911   0.1039   0.1052   0.1130
  0.1249   0.1451   0.1488   0.1577   0.1620   0.1831   0.1948   0.1994
  0.2221   0.2242   0.2391   0.2468   0.2567   0.2724   0.2736   0.2773
  0.2808   0.2899   0.3097   0.3101   0.3129   0.3224   0.3315   0.3402
  0.3438   0.3562   0.3570   0.3649   0.3689   0.3782   0.3864   0.3995
  0.4054   0.4100   0.4280   0.4388   0.4521   0.4621   0.4660   0.4742
  0.4830   0.4935   0.4994   0.5073   0.5153   0.5183   0.5476   0.5566
  0.5745   0.5955   0.6074   0.6240   0.6389   0.6482   0.6543   0.6723
  0.6874   0.7038   0.7136   0.7322   0.7372   0.7488   0.7555   0.7613
  0.7746   0.7858   0.8039   0.8174   0.8293   0.8574   0.8659   0.8822
  0.9070   0.9426   0.9518   0.9668   0.9860   0.9939   1.0204   1.0440
  1.0711   1.1154   1.1258   1.1493   1.1622   1.1763   1.1889   1.2047
  1.2123   1.2329   1.2555   1.2677   1.2742   1.3035   1.3233   1.3326
  1.3716   1.3909   1.3954   1.4267   1.4407   1.4526   1.4921   1.5055
  1.5594   1.5940   1.6326   1.6381   1.6461   1.6636   1.6881   1.7041
  1.7420   1.7768   1.8982   1.9306   1.9661   2.0077   2.0240   2.0355
  2.0809   2.1305   2.1573   2.1953   2.2376   2.2594   2.3299   2.3446
  2.3810   2.4474   2.4652   2.6685   2.6998   2.7117   2.7859   2.8064
  2.8291   2.8518   2.8616   2.8892   2.9280   2.9631   2.9758   2.9967
  3.0171   3.0396   3.0515   3.0780   3.1300   3.1540   3.1938   3.2204
  3.2382   3.2503   3.2603   3.2831   3.2913   3.3079   3.3208   3.3459
  3.3880   3.4210   3.4239   3.4824   3.4954   3.5145   3.5292   3.5559
  3.5866   3.6011   3.6291   3.6869   3.7173   3.7241   3.7324   3.7628
  3.7847   3.8311   3.8524   3.9050   3.9372   3.9629   3.9809   4.0086
  4.0256   4.0314   4.0565   4.1083   4.1182   4.1257   4.1344   4.1680
  4.1916   4.1995   4.2182   4.2237   4.2523   4.2731   4.2977   4.3156
  4.3462   4.3621   4.4075   4.4410   4.4676   4.4799   4.5151   4.5850
  4.6664   4.6783   4.7175   4.7660   4.7959   4.8045   4.8327   4.9357
  4.9621   5.0006   5.0147   5.0375   5.0489   5.1605   5.2129   5.2589
  5.2934   5.3387   5.4148   5.4307   5.4388   5.4774   5.5057   5.5858
  5.5952   5.6696   5.7215   5.7273   5.7497   5.7922   5.8669   6.0653
  6.2556   6.2875   6.5499   6.6255   6.6439   6.6801   6.7189   6.7740
  6.8164   6.8619   6.9096   6.9613   7.0648   7.1538   7.3517   7.5284
  7.5561   7.6830   7.7588   7.9064  23.7206  24.0688  44.4079  44.6983
 --------------------------------------------------------------
 
          Ground-State Mulliken Net Atomic Charges

     Atom                 Charge (a.u.)
  ----------------------------------------
      1 C                    -0.827995
      2 C                    -0.240236
      3 O                    -0.385087
      4 H                     0.134895
      5 H                     0.222934
      6 H                     0.274300
      7 H                     0.261208
      8 H                     0.259377
      9 H                     0.312448
     10 O                    -0.363748
     11 H                     0.124422
     12 H                     0.227482
  ----------------------------------------
  Sum of atomic charges =     0.000000

 -----------------------------------------------------------------
                    Cartesian Multipole Moments
 -----------------------------------------------------------------
    Charge (ESU x 10^10)
                 0.0000
    Dipole Moment (Debye)
         X      -1.6685      Y       0.7345      Z       0.3780
       Tot       1.8618
    Quadrupole Moments (Debye-Ang)
        XX     -24.1905     XY       4.2733     YY     -29.3083
        XZ      -2.0159     YZ       1.4242     ZZ     -25.4269
    Octopole Moments (Debye-Ang^2)
       XXX      19.4714    XXY      15.3794    XYY       1.3680
       YYY       1.1920    XXZ      -3.9276    XYZ      -2.4802
       YYZ       2.2108    XZZ      -1.4228    YZZ       4.7302
       ZZZ       3.1837
    Hexadecapole Moments (Debye-Ang^3)
      XXXX    -368.5978   XXXY      31.1736   XXYY    -101.5073
      XYYY      -0.8201   YYYY    -168.6608   XXXZ     -20.1373
      XXYZ       0.8326   XYYZ      -1.4136   YYYZ       6.9178
      XXZZ     -87.4330   XYZZ      -2.3077   YYZZ     -33.6229
      XZZZ      -5.1998   YZZZ       5.7221   ZZZZ     -57.5389
 -----------------------------------------------------------------
 Total job time:  656.60s(wall), 614.12s(cpu) 
 Thu Feb 27 17:30:31 2025

        *************************************************************
        *                                                           *
        *  Thank you very much for using Q-Chem.  Have a nice day.  *
        *                                                           *
        *************************************************************


