
Running Job 1 of 1 003_ethanol_WD_0.90_almo.inp
qchem 003_ethanol_WD_0.90_almo.inp_5369.0 /home/kchung25/scratch/qchem5369/ 1
/home/kchung25/qchem/exe/qcprog.exe_s 003_ethanol_WD_0.90_almo.inp_5369.0 /home/kchung25/scratch/qchem5369/
                  Welcome to Q-Chem
     A Quantum Leap Into The Future Of Chemistry


 Q-Chem 6.2, Q-Chem, Inc., Pleasanton, CA (2024)

 E. Epifanovsky,  A. T. B. Gilbert,  Xintian Feng,  Joonho Lee,  Yuezhi Mao,  
 N. Mardirossian,  P. Pokhilko,  A. White,  M. Wormit,  M. P. Coons,  
 A. L. Dempwolff,  Zhengting Gan,  D. Hait,  P. R. Horn,  L. D. Jacobson,  
 I. Kaliman,  J. Kussmann,  A. W. Lange,  Ka Un Lao,  D. S. Levine,  Jie Liu,  
 S. C. McKenzie,  A. F. Morrison,  K. D. Nanda,  F. Plasser,  D. R. Rehn,  
 M. L. Vidal,  Zhi-Qiang You,  Ying Zhu,  Huseyin Aksu,  B. Alam,  
 B. Albrecht,  A. Aldossary,  E. Alguire,  J. H. Andersen,  
 J. E. Arias-Martinez,  V. Athavale,  D. Barton,  K. Begam,  A. Behn,  
 N. Bellonzi,  Y. A. Bernard,  E. J. Berquist,  H. Burton,  A. Carreras,  
 K. Carter-Fenk,  Mathew Chow,  Romit Chakraborty,  Chandrima Chakravarty,  
 Junhan Chen,  A. D. Chien,  K. D. Closser,  V. Cofer-Shabica,  L. Cunha,  
 S. Dasgupta,  Jia Deng,  Joseph Dickinson,  M. de Wergifosse,  
 M. Diedenhofen,  Hainam Do,  Wenjie Dou,  S. Ehlert,  Po-Tung Fang,  
 S. Fatehi,  Qingguo Feng,  Jonathan Fetherolf,  T. Friedhoff,  
 Thomas Froitzheim,  Sarai Folkestad,  B. Ganoe,  J. Gayvert,  Qinghui Ge,  
 G. Gidofalvi,  M. Gimferrer,  M. Goldey,  Montgomery Gray,  J. Gomes,  
 C. Gonzalez-Espinoza,  S. Gulania,  A. Gunina,  J. A. Gyamfi,  
 M. W. D. Hanson-Heine,  P. H. P. Harbach,  A. W. Hauser,  M. F. Herbst,  
 M. Hernandez Vera,  M. Hodecker,  Z. C. Holden,  S. Houck,  Xunkun Huang,  
 Kerwin Hui,  B. C. Huynh,  K. Ikeda,  M. Ivanov,  Nayanthara K. Jayadev,  
 Hyunjun Ji,  Zuxin Jin,  Hanjie Jiang,  Subrata Jana,  B. Kaduk,  
 S. Kaehler,  R. Kang,  K. Khistyaev,  Jaehoon Kim,  Yongbin Kim,  
 P. Klunzinger,  Z. Koczor-Benda,  Joong Hoon Koh,  D. Kosenkov,  
 Saikiran Kotaru,  L. Koulias,  T. Kowalczyk,  C. M. Krauter,  K. Kue,  
 A. Kunitsa,  T. Kus,  A. Landau,  K. V. Lawler,  D. Lefrancois,  S. Lehtola,  
 Rain Li,  Shaozhi Li,  Tao E. Li,  Yi-Pei Li,  Jiashu Liang,  M. Liebenthal,  
 Hung-Hsuan Lin,  You-Sheng Lin,  Fenglai Liu,  Kuan-Yu Liu,  Xiao Liu,  
 M. Loipersberger,  A. Luenser,  C. Malbon,  Aniket Mandal,  Manisha,  
 A. Manjanath,  P. Manohar,  E. Mansoor,  S. F. Manzer,  Shan-Ping Mao,  
 A. V. Marenich,  T. Markovich,  S. Mason,  F. Matz,  S. A. Maurer,  
 Samuel May,  Alexandra McIsaac,  P. F. McLaughlin,  M. F. S. J. Menger,  
 J.-M. Mewes,  S. A. Mewes,  P. Morgante,  Mohammad Mostafanejad,  
 Madhubani Mukherjee,  J. W. Mullinax,  Quyen Nguyen,  Avik Kumar Ojha,  
 K. J. Oosterbaan,  Eno Paenurk,  Xiaoliang Pan,  G. Paran,  V. Parravicini,  
 Alexander C. Paul,  Suranjan K. Paul,  F. Pavosevic,  Zheng Pei,  S. Prager,  
 E. I. Proynov,  E. Ramos,  B. Rana,  A. E. Rask,  A. Rettig,  R. M. Richard,  
 F. Rob,  E. Rossomme,  T. Scheele,  M. Scheurer,  M. Schneider,  
 P. E. Schneider,  Tim K. Schramm,  N. Sergueev,  S. M. Sharada,  
 Hengyuan Shen,  W. Skomorowski,  D. W. Small,  C. J. Stein,  
 Alistair J. Sterling,  Yingli Su,  Yu-Chuan Su,  E. J. Sundstrom,  
 J. Talbot,  Zhen Tao,  J. Thirman,  Hung-Yi Tsai,  T. Tsuchimochi,  
 N. M. Tubman,  C. Utku,  S. P. Veccham,  O. Vydrov,  Rahel Weiss,  
 J. Wenzel,  Jonathan Wong,  J. Witte,  H. Wu,  Yanze Wu,  A. Yamada,  
 Chou-Hsun Yang,  Kun Yao,  S. Yeganeh,  S. R. Yost,  Qi Yu,  A. Zech,  
 F. Zeller,  Chongxiao Zhao,  Igor Ying Zhang,  Xing Zhang,  Yu Zhang,  
 D. Zuev,  A. Aspuru-Guzik,  A. T. Bell,  N. A. Besley,  K. B. Bravaya,  
 B. R. Brooks,  D. Casanova,  Jeng-Da Chai,  Hsing-Ta Chen,  S. Coriani,  
 C. J. Cramer,  A. E. DePrince, III,  R. A. DiStasio Jr.,  A. Dreuw,  
 B. D. Dunietz,  T. R. Furlani,  W. A. Goddard III,  S. Grimme,  
 S. Hammes-Schiffer,  T. Head-Gordon,  W. J. Hehre,  Chao-Ping Hsu,  
 T.-C. Jagau,  Yousung Jung,  A. Klamt,  Jing Kong,  D. S. Lambrecht,  
 Xiangyuan Li,  WanZhen Liang,  N. J. Mayhall,  C. W. McCurdy,  J. B. Neaton,  
 T. Neudecker,  C. Ochsenfeld,  J. A. Parkhill,  R. Peverati,  
 V. A. Rassolov,  Haisheng Ren,  Yihan Shao,  L. V. Slipchenko,  
 R. P. Steele,  J. E. Subotnik,  A. J. W. Thom,  A. Tkatchenko,  
 D. G. Truhlar,  T. Van Voorhis,  Fan Wang,  T. A. Wesolowski,  K. B. Whaley,  
 H. L. Woodcock III,  P. M. Zimmerman,  S. Faraji,  P. M. W. Gill,  
 M. Head-Gordon,  J. M. Herbert,  A. I. Krylov

 Contributors to earlier versions of Q-Chem not listed above: 
 R. D. Adamson,  B. Austin,  R. Baer,  J. Baker,  G. J. O. Beran,  
 K. Brandhorst,  S. T. Brown,  E. F. C. Byrd,  Arup K. Chakraborty,  
 G. K. L. Chan,  Chun-Min Chang,  Yunqing Chen,  C.-L. Cheng,  
 Siu Hung Chien,  D. M. Chipman,  D. L. Crittenden,  H. Dachsel,  
 R. J. Doerksen,  A. D. Dutoi,  R. G. Edgar,  J. Fosso-Tande,  
 L. Fusti-Molnar,  D. Ghosh,  A. Ghysels,  A. Golubeva-Zadorozhnaya,  
 J. Gonthier,  M. S. Gordon,  S. R. Gwaltney,  G. Hawkins,  J. E. Herr,  
 A. Heyden,  S. Hirata,  E. G. Hohenstein,  G. Kedziora,  F. J. Keil,  
 C. Kelley,  Jihan Kim,  R. A. King,  R. Z. Khaliullin,  P. P. Korambath,  
 W. Kurlancheek,  A. Laurent,  A. M. Lee,  M. S. Lee,  S. V. Levchenko,  
 Ching Yeh Lin,  D. Liotard,  E. Livshits,  R. C. Lochan,  I. Lotan,  
 L. A. Martinez-Martinez,  P. E. Maslen,  N. Nair,  D. P. O'Neill,  
 D. Neuhauser,  E. Neuscamman,  C. M. Oana,  R. Olivares-Amaya,  R. Olson,  
 T. M. Perrine,  B. Peters,  P. A. Pieniazek,  A. Prociuk,  Y. M. Rhee,  
 J. Ritchie,  M. A. Rohrdanz,  E. Rosta,  N. J. Russ,  H. F. Schaefer III,  
 M. W. Schmidt,  N. E. Schultz,  S. Sharma,  N. Shenvi,  C. D. Sherrill,  
 A. C. Simmonett,  A. Sodt,  T. Stein,  D. Stuck,  K. S. Thanthiriwatte,  
 V. Vanovschi,  L. Vogt,  Tao Wang,  A. Warshel,  M. A. Watson,  
 C. F. Williams,  Q. Wu,  X. Xu,  Jun Yang,  W. Zhang,  Yan Zhao

   Please cite Q-Chem as follows:
  "Software for the frontiers of quantum chemistry:
   An overview of developments in the Q-Chem 5 package"
   J. Chem. Phys. 155, 084801 (2021)
   https://doi.org/10.1063/5.0055522 (open access)

 Q-Chem 6.2.2 for Intel X86 EM64T Linux

 Parts of Q-Chem use Armadillo 9.900.5 (Nocturnal Misbehaviour).
 http://arma.sourceforge.net/

 Q-Chem begins on Thu Feb 27 16:20:22 2025  

 Host: 
0

     Scratch files written to /home/kchung25/scratch/qchem5369//
 Nov1724 |scratch|qcdevops|jenkins|workspace|build_RNUM -1
 Processing $rem in /home/kchung25/qchem/config/preferences:
 Processing $rem in /home/kchung25/.qchemrc:

 Q-Chem warning in module libgen/rem_setup.C, line 3433:

 Neither GIA nor STOLL is specified by user. Use STOLL as the default


 Checking the input file for inconsistencies... 	...done.

--------------------------------------------------------------
User input:
--------------------------------------------------------------
$molecule
0 1
--
0 1
C    1.194805   1.105056   0.217010
C    1.098581  -0.235452  -0.466153
O    0.230083  -1.136243   0.231245
H    0.554363  -1.221565   1.132406
H    0.209866   1.553945   0.306714
H    1.627020   1.001440   1.211082
H    1.834187   1.772416  -0.356643
H    0.656104  -0.131699  -1.451625
H    2.081430  -0.691441  -0.581209
--
0 1
O   -1.884492   0.216587  -0.020243
H   -2.654243  -0.302475  -0.257744
H   -1.178064  -0.432175   0.116102
$end

$rem
JOBTYPE          eda
EDA2             1
METHOD           wB97M-V
BASIS            def2-TZVPPD
SYMMETRY         false
MEM_TOTAL        50000
MEM_STATIC       10000
THRESH           14
SCF_CONVERGENCE  8
XC_GRID          000099000590
NL_GRID          1
EDA_CLS_DISP     true
FD_MAT_VEC_PROD  FALSE
$end
--------------------------------------------------------------
 ----------------------------------------------------------------
             Standard Nuclear Orientation (Angstroms)
    I     Atom           X                Y                Z
 ----------------------------------------------------------------
    1      C       1.2404542102    -0.9577961494    -0.2005697373
    2      C       0.9588208334     0.3666708493     0.4623044976
    3      O      -0.0338038673     1.1228099263    -0.2412771053
    4      H       0.2689643991     1.2382442557    -1.1465587204
    5      H       0.3289326254    -1.5437508682    -0.2743155409
    6      H       1.6468249904    -0.8104571428    -1.2000091947
    7      H       1.9722201442    -1.5176075393     0.3776917100
    8      H       0.5422548195     0.2175909154     1.4532402032
    9      H       1.8674322579     0.9597813608     0.5613055502
   10      O      -1.9323479111    -0.5127984495     0.0505077610
   11      H      -2.7665850437    -0.1046614261     0.2867730012
   12      H      -1.3264802271     0.2275204300    -0.1023808161
 ----------------------------------------------------------------
 Molecular Point Group                 C1    NOp =  1
 Largest Abelian Subgroup              C1    NOp =  1
 Nuclear Repulsion Energy =         138.48008340 hartrees
 There are       18 alpha and       18 beta electrons
 Requested basis set is def2-TZVPPD
 There are 110 shells and 290 basis functions

 Q-Chem warning in module libmdc/get_mega.C, line 167:

 Allowed MEM_STATIC has been capped at MEM_STATIC=8191.
 Reduce the value of MEM_STATIC to silence this warning.


 Total QAlloc Memory Limit  50000 MB
 Mega-Array Size      8007 MB
 MEM_STATIC part      8191 MB


                       Distance Matrix (Angstroms)
             C (  1)   C (  2)   O (  3)   H (  4)   H (  5)   H (  6)
   C (  2)  1.507625
   O (  3)  2.440146  1.432507
   H (  4)  2.580946  1.955501  0.961524
   H (  5)  1.086118  2.142214  2.691322  2.916145
   H (  6)  1.088910  2.149946  2.735179  2.469521  1.769596
   H (  7)  1.087776  2.141178  3.373286  3.580382  1.768104  1.759285
   H (  8)  2.145718  1.085221  2.005655  2.806310  2.476344  3.052325
   H (  9)  2.156539  1.089567  2.070125  2.355725  3.054982  2.506919
   O ( 10)  3.213680  3.049902  2.522860  3.056942  2.506344  3.803008
   H ( 11)  4.125737  3.759204  3.041976  3.615577  3.459484  4.710293
   H ( 12)  2.829093  2.358142  1.578559  2.158081  2.430505  3.335076
             H (  7)   H (  8)   H (  9)   O ( 10)   H ( 11)
   H (  8)  2.492493
   H (  9)  2.486393  1.761388
   O ( 10)  4.045039  2.936799  4.107035
   H ( 11)  4.945802  3.523196  4.762617  0.958305
   H ( 12)  3.762627  2.431507  3.343316  0.968774  1.528296
 
 A cutoff of  1.0D-14 yielded   5958 shell pairs
 There are     41690 function pairs (     51459 Cartesian)
 Smallest overlap matrix eigenvalue = 1.01E-05

 Scale SEOQF with 1.000000e-01/1.000000e-01/1.000000e-01

 Standard Electronic Orientation quadrupole field applied
 Nucleus-field energy     =     0.0000000034 hartrees

 -----------------------------------------------------------------------
  General SCF calculation program by
  Eric Jon Sundstrom, Paul Horn, Yuezhi Mao, Dmitri Zuev, Alec White,
  David Stuck, Shaama M.S., Shane Yost, Joonho Lee, David Small,
  Daniel Levine, Susi Lehtola, Hugh Burton, Evgeny Epifanovsky,
  Bang C. Huynh
 -----------------------------------------------------------------------
================================================================
                 ALMO-EDA with the EDA2 driver                  
================================================================
 The second-generation ALMO-EDA (for DFT):                      
 P. R. Horn, Y. Mao and M. Head-Gordon, PCCP, 18, 23067 (2016)  
 Y. Mao et al. Annu. Rev. Phys. Chem. 72, 641 (2021)            
 Decomposition of the frozen energy:                            
 P. R. Horn, Y. Mao and M. Head-Gordon, JCP, 144, 114107 (2016) 
 FERF model for polarization:                                   
 P. R. Horn and M. Head-Gordon, JCP, 143, 114111 (2015)         
================================================================
 Using eda2 option set 1
 Option set summary: Frozen orbital wavefunction, initial wavefunction decomposition, and nDQ polarization.
--------------------------------
Printing EDA Options
--------------------------------
eda_child_super_basis      0
fragmo_guess_mode          0
child_mp                   1
child_mp_orders            232
cls_elec                   1
cls_disp                   1
scfmi_mode                 1
scfmi_occs                 0
scfmi_virts                0
frz_relax                  0
frz_relax_method           0
dc_pen_start               0
dc_pen_conv                0
dc_pen_increment           0
dc_pen_steps               0
dc_pen_thresh_factor       0
dc_pen_pre_newton_thresh   0
frz_ortho_decomp           1
frz_ortho_decomp_conv      6
plot_mo_ortho_frz          0
frgm_method                2
scfmi_freeze_ss            0
separate_rehyb             0
plot_diff_den              0
eda_nocv                   0
eda_vct_relax              1
disp_free_x                0
disp_free_c                0
eda_bsse                   0
eda_pct_a                  0
eda_covp                   0
eda_pol_a                  0
eda_vct_a                  0
has_sol                    0
print_level                1
--------------------------------
 Attempting to make child job directory: /home/kchung25/scratch/qchem5369//Frg1/
 Attempting to make child job directory: /home/kchung25/scratch/qchem5369//Frg2/
 Creating input file /home/kchung25/scratch/qchem5369/Frg1.input
 using default PutDataFrgm: nothing
 calling putenv with: QCSCRATCH=/home/kchung25/scratch/qchem5369/ 
 Spawning Job For Fragment 0
 Done Job For Fragment 0
 calling putenv with: QCSCRATCH=/home/kchung25/scratch 
 calling putenv with: QCTHREADS=2 
 Creating input file /home/kchung25/scratch/qchem5369/Frg2.input
 using default PutDataFrgm: nothing
 calling putenv with: QCSCRATCH=/home/kchung25/scratch/qchem5369/ 
 Spawning Job For Fragment 1
 Done Job For Fragment 1
 calling putenv with: QCSCRATCH=/home/kchung25/scratch 
 calling putenv with: QCTHREADS=2 
Doing General SCFMI
 Exchange:     0.1500 Hartree-Fock + 1.0000 wB97M-V + LR-HF
 Correlation:  1.0000 wB97M-V
 Using Euler-Maclaurin-Lebedev (99,590) quadrature formula
 Nonlocal Correlation:  VV10 with C = 0.0100 and b = 6.00 and scale = 1.00000
 Grid used for NLC:  SG-1 standard quadrature
performing fock build before subrot guess so that all methods have access
Printing subrot_rss_gen Method Specification:
Occupied Subspace Method is 0
Virtual Subspace Method is 0
Energy of the unrelaxed supersystem initial determinant -231.454204782048
write pseudocanon occs and virts to disk
write pseudocanon orbital energies to disk
Tolerance of ortho_decomp_scf: 1.00e-06
GDM subspace size: 20
Beginning the Orthogonal Decomposition of the Initial Supersystem Wavefunction
    1    -231.3553763048      2.60e-01     ortho_decomp Preconditoned Steepest Descent
    2    -231.3715268540      5.28e-03     ortho_decomp BFGS Step
    3    -231.3715698748      4.60e-04     ortho_decomp BFGS Step
    4    -231.3715699676      1.61e-05     ortho_decomp BFGS Step
    5    -231.3715699677      3.86e-07     ortho_decomp 00000 Convergence criterion met
 Hartree-Fock
 Hartree-Fock
 Hartree-Fock
 Exchange:     0.1500 Hartree-Fock + 1.0000 wB97M-V + LR-HF
 Correlation:  1.0000 wB97M-V
 Using Euler-Maclaurin-Lebedev (99,590) quadrature formula
 Nonlocal Correlation:  VV10 with C = 0.0100 and b = 6.00 and scale = 1.00000
 Grid used for NLC:  SG-1 standard quadrature
 Long-range K will be added via erf
 Coulomb attenuation parameter = 0.3 bohr**(-1)
 Nonlocal correlation = 1.434520198312e-01
Doing General SCFMI
 Exchange:     0.1500 Hartree-Fock + 1.0000 wB97M-V + LR-HF
 Correlation:  1.0000 wB97M-V
 Using Euler-Maclaurin-Lebedev (99,590) quadrature formula
 Nonlocal Correlation:  VV10 with C = 0.0100 and b = 6.00 and scale = 1.00000
 Grid used for NLC:  SG-1 standard quadrature
performing fock build at end of subrot_r(subrot) constructor so that all methods have access
<S^2> of initial wavefunction before polarization iterations 0.0000000000
Beginning iterations for the determination of the polarized wavefunction
Energy prior to optimization (guess energy) = -231.454204782047
Begin Timing: Total SCF Calculation
begin iterations for algorithm: DIIS         
the SCF tolerance is set to 1.00e-08
    1    -231.4542047820      6.64e-04     00000 
    2    -231.4604701698      2.17e-04     00000 
    3    -231.4609976049      1.36e-04     00000 
    4    -231.4611526486      4.26e-05     00000 
    5    -231.4611824099      1.50e-05     00000 
    6    -231.4611892655      7.36e-06     00000 
    7    -231.4611901894      3.79e-06     00000 
    8    -231.4611904793      7.85e-07     00000 
    9    -231.4611904968      2.35e-07     00000 
   10    -231.4611904981      8.47e-08     00000 
   11    -231.4611904982      4.64e-08     00000 
   12    -231.4611904982      1.74e-08     00000 
   13    -231.4611904982      5.71e-09     00000 Convergence criterion met
write pseudocanon occs and virts to disk
write pseudocanon orbital energies to disk
Timing for Total SCF: 121.00s (wall), 241.28s (cpu)
<S^2> of polarized wavefunction after polarization iterations 0.0000000000
relaxing scfmi constraint to allow all rotations in the entire AO span
Doing General SCFMI
 Exchange:     0.1500 Hartree-Fock + 1.0000 wB97M-V + LR-HF
 Correlation:  1.0000 wB97M-V
 Using Euler-Maclaurin-Lebedev (99,590) quadrature formula
 Nonlocal Correlation:  VV10 with C = 0.0100 and b = 6.00 and scale = 1.00000
 Grid used for NLC:  SG-1 standard quadrature
performing fock build at end of subrot_r(subrot) constructor so that all methods have access
<S^2> of polarized wavefunction before ct-allowed iterations 0.0000000000
Beginning iterations for the determination of the CT-Allowed wavefunction
Energy prior to optimization (guess energy) = -231.461190498187
Begin Timing: Total SCF Calculation
begin iterations for algorithm: DIIS         
the SCF tolerance is set to 1.00e-08
    1    -231.4611904982      4.79e-04     00000 
    2    -231.4710385364      7.21e-05     00000 
    3    -231.4713421254      3.86e-05     00000 
    4    -231.4713811748      1.22e-05     00000 
    5    -231.4713868474      2.03e-06     00000 
    6    -231.4713870487      6.50e-07     00000 
    7    -231.4713870720      2.90e-07     00000 
    8    -231.4713870754      6.49e-08     00000 
    9    -231.4713870756      2.46e-08     00000 
   10    -231.4713870756      5.55e-09     00000 Convergence criterion met
write pseudocanon occs and virts to disk
write pseudocanon orbital energies to disk
Timing for Total SCF: 91.00s (wall), 182.11s (cpu)
<S^2> of ct_allowed wavefunction after ct-allowed iterations 0.0000000000

================================
        Results of EDA2         
================================
Basic EDA Quantities
--------------------
Fragment Energies (Ha):
1   -155.0294062479
2    -76.4363016877
--------------------
  E_prp (kJ/mol) = 0.0000
  E_frz (kJ/mol) = 30.2019
  E_pol (kJ/mol) = -18.3412
  E_vct (kJ/mol) = -26.7714
  E_int (kJ/mol) = -14.9108
--------------------


Decomposition of frozen interaction energy
--------------------
  --------------------
  Orthogonal Frozen Decomposition:
  --------------------
     E_elec   (ELEC)   (kJ/mol) = -155.9345
     E_pauli  (PAULI)  (kJ/mol) = 206.8569
     E_disp   (DISP)   (kJ/mol) = -20.7204
  --------------------
  Classical Frozen Decomposition:
  --------------------
     E_cls_elec  (CLS ELEC)  (kJ/mol) = -85.5329
     E_mod_pauli (MOD PAULI) (kJ/mol) = 134.6293 (FRZ - CLS ELEC - CLS DISP)
     E_cls_disp  (CLS DISP)  (kJ/mol) = -18.8946
  --------------------
--------------------

Simplified EDA Summary (kJ/mol)
--------------------
 PREPARATION      0.0000
 FROZEN           30.2019 (ELEC + PAULI + DISP)
[ELEC + PAULI = 49.0965, DISP = -18.8946]
 POLARIZATION    -18.3412
 CHARGE TRANSFER -26.7714
 TOTAL           -14.9108     (PRP + FRZ + POL + CT)
--------------------
 
 --------------------------------------------------------------
 
                    Orbital Energies (a.u.)
 --------------------------------------------------------------
 
 Alpha MOs
 -- Occupied --
-19.3578 -19.2917 -10.3974 -10.3339  -1.1792  -1.1013  -0.8827  -0.7549
 -0.6529  -0.6008  -0.5735  -0.5549  -0.5097  -0.4824  -0.4563  -0.4445
 -0.4030  -0.3912
 -- Virtual --
  0.0308   0.0578   0.0595   0.0618   0.0940   0.1036   0.1077   0.1151
  0.1275   0.1482   0.1575   0.1653   0.1710   0.1831   0.1966   0.2051
  0.2261   0.2460   0.2479   0.2607   0.2684   0.2794   0.2807   0.2865
  0.2901   0.2939   0.3095   0.3179   0.3218   0.3267   0.3451   0.3459
  0.3522   0.3615   0.3662   0.3721   0.3790   0.3892   0.3994   0.4024
  0.4120   0.4271   0.4352   0.4463   0.4593   0.4660   0.4711   0.4820
  0.4963   0.5001   0.5143   0.5166   0.5187   0.5453   0.5649   0.5764
  0.5858   0.5948   0.6183   0.6425   0.6457   0.6628   0.6776   0.6830
  0.6947   0.7145   0.7269   0.7317   0.7513   0.7621   0.7699   0.7748
  0.7893   0.8000   0.8109   0.8275   0.8427   0.8632   0.8826   0.8988
  0.9284   0.9540   0.9899   0.9942   1.0109   1.0293   1.0597   1.1070
  1.1105   1.1317   1.1534   1.1586   1.1842   1.2115   1.2314   1.2480
  1.2574   1.2702   1.2802   1.3045   1.3163   1.3365   1.3482   1.3697
  1.4121   1.4236   1.4547   1.4706   1.4814   1.4848   1.5253   1.5414
  1.5716   1.6232   1.6326   1.6569   1.6785   1.6912   1.7173   1.7449
  1.7650   1.7861   1.9320   1.9450   1.9926   2.0351   2.0651   2.0847
  2.1311   2.1850   2.2130   2.2453   2.2914   2.3125   2.3484   2.3935
  2.4259   2.4719   2.4934   2.6863   2.7247   2.7545   2.8151   2.8415
  2.8488   2.8885   2.8917   2.9118   2.9557   2.9788   3.0009   3.0206
  3.0495   3.0573   3.0834   3.1196   3.1569   3.1800   3.2201   3.2348
  3.2391   3.2649   3.2846   3.3105   3.3122   3.3371   3.3748   3.4023
  3.4318   3.4496   3.4829   3.4960   3.5321   3.5631   3.5935   3.6013
  3.6301   3.6449   3.6883   3.7211   3.7298   3.7516   3.7652   3.8081
  3.8201   3.8811   3.9033   3.9603   3.9753   4.0017   4.0253   4.0304
  4.0901   4.1061   4.1168   4.1274   4.1568   4.1683   4.1931   4.1939
  4.2166   4.2402   4.2452   4.2662   4.3168   4.3322   4.3414   4.3857
  4.4052   4.4279   4.4416   4.4828   4.5040   4.5362   4.5537   4.5972
  4.6719   4.6890   4.7220   4.7944   4.8141   4.8285   4.9355   4.9638
  4.9724   5.0039   5.0296   5.0455   5.1115   5.1756   5.2207   5.3043
  5.3099   5.4158   5.4283   5.4436   5.4724   5.5184   5.5292   5.5931
  5.6153   5.6811   5.7459   5.7621   5.7797   5.8029   5.9777   6.0937
  6.2876   6.4312   6.5499   6.6501   6.7065   6.7367   6.7745   6.8435
  6.8544   6.9298   7.0148   7.0876   7.1191   7.2681   7.4997   7.5832
  7.7027   7.7315   7.9837   8.0169  23.7952  24.0801  44.5488  44.8070
 --------------------------------------------------------------
 
          Ground-State Mulliken Net Atomic Charges

     Atom                 Charge (a.u.)
  ----------------------------------------
      1 C                    -0.904377
      2 C                    -0.236057
      3 O                    -0.368738
      4 H                     0.147106
      5 H                     0.277545
      6 H                     0.283778
      7 H                     0.272288
      8 H                     0.267493
      9 H                     0.318205
     10 O                    -0.412500
     11 H                     0.100834
     12 H                     0.254423
  ----------------------------------------
  Sum of atomic charges =     0.000000

 -----------------------------------------------------------------
                    Cartesian Multipole Moments
 -----------------------------------------------------------------
    Charge (ESU x 10^10)
                 0.0000
    Dipole Moment (Debye)
         X       1.9012      Y       1.3153      Z      -0.4909
       Tot       2.3634
    Quadrupole Moments (Debye-Ang)
        XX     -24.5949     XY      -2.4252     YY     -29.1538
        XZ      -1.2199     YZ      -1.7062     ZZ     -25.1278
    Octopole Moments (Debye-Ang^2)
       XXX     -18.7560    XXY       7.7451    XYY       1.4003
       YYY       2.2854    XXZ       3.9896    XYZ      -0.8258
       YYZ      -2.5199    XZZ       0.0546    YZZ       4.8655
       ZZZ      -3.4262
    Hexadecapole Moments (Debye-Ang^3)
      XXXX    -261.1069   XXXY      -7.4256   XXYY     -79.9061
      XYYY       2.3836   YYYY    -153.3690   XXXZ     -11.8147
      XXYZ      -2.4243   XYYZ       0.1985   YYYZ      -6.1925
      XXZZ     -64.6358   XYZZ       0.3933   YYZZ     -31.5827
      XZZZ      -2.6720   YZZZ      -6.4438   ZZZZ     -55.8610
 -----------------------------------------------------------------
 Total job time:  734.75s(wall), 747.87s(cpu) 
 Thu Feb 27 16:32:37 2025

        *************************************************************
        *                                                           *
        *  Thank you very much for using Q-Chem.  Have a nice day.  *
        *                                                           *
        *************************************************************


