
Running Job 1 of 1 004_ethanol_dimer_35_almo.inp
qchem 004_ethanol_dimer_35_almo.inp_132552.0 /scratch/qchem132552/ 6
/home/kchung25/qchem/5.4.0/exe/qcprog.exe_s 004_ethanol_dimer_35_almo.inp_132552.0 /scratch/qchem132552/
                  Welcome to Q-Chem
     A Quantum Leap Into The Future Of Chemistry


 Q-Chem 5.4, Q-Chem, Inc., Pleasanton, CA (2021)

 E. Epifanovsky,  A. T. B. Gilbert,  Xintian Feng,  Joonho Lee,  Yuezhi Mao,  
 N. Mardirossian,  P. Pokhilko,  A. White,  M. Wormit,  M. P. Coons,  
 A. L. Dempwolff,  Zhengting Gan,  D. Hait,  P. R. Horn,  L. D. Jacobson,  
 I. Kaliman,  J. Kussmann,  A. W. Lange,  Ka Un Lao,  D. S. Levine,  Jie Liu,  
 S. C. McKenzie,  A. F. Morrison,  K. Nanda,  F. Plasser,  D. R. Rehn,  
 M. L. Vidal,  Zhi-Qiang You,  Ying Zhu,  B. Alam,  B. Albrecht,  
 A. Aldossary,  E. Alguire,  J. H. Andersen,  D. Barton,  K. Begam,  A. Behn,  
 Y. A. Bernard,  E. J. Berquist,  H. Burton,  A. Carreras,  K. Carter-Fenk,  
 Romit Chakraborty,  A. D. Chien,  K. D. Closser,  V. Cofer-Shabica,  
 S. Dasgupta,  Jia Deng,  M. de Wergifosse,  M. Diedenhofen,  Hainam Do,  
 S. Ehlert,  Po-Tung Fang,  S. Fatehi,  Qingguo Feng,  T. Friedhoff,  
 J. Gayvert,  Qinghui Ge,  G. Gidofalvi,  M. Goldey,  J. Gomes,  
 C. Gonzalez-Espinoza,  S. Gulania,  A. Gunina,  M. W. D. Hanson-Heine,  
 P. H. P. Harbach,  A. W. Hauser,  M. F. Herbst,  M. Hernandez Vera,  
 M. Hodecker,  Z. C. Holden,  S. Houck,  Xunkun Huang,  Kerwin Hui,  
 B. C. Huynh,  M. Ivanov,  Hyunjun Ji,  Hanjie Jiang,  B. Kaduk,  S. Kaehler,  
 K. Khistyaev,  Jaehoon Kim,  P. Klunzinger,  Z. Koczor-Benda,  
 Joong Hoon Koh,  D. Kosenkov,  L. Koulias,  T. Kowalczyk,  C. M. Krauter,  
 K. Kue,  A. Kunitsa,  T. Kus,  A. Landau,  K. V. Lawler,  D. Lefrancois,  
 S. Lehtola,  Rain Li,  Yi-Pei Li,  Jiashu Liang,  M. Liebenthal,  
 Hung-Hsuan Lin,  You-Sheng Lin,  Fenglai Liu,  Kuan-Yu Liu,  
 M. Loipersberger,  A. Luenser,  A. Manjanath,  P. Manohar,  E. Mansoor,  
 S. F. Manzer,  Shan-Ping Mao,  A. V. Marenich,  T. Markovich,  S. Mason,  
 S. A. Maurer,  P. F. McLaughlin,  M. F. S. J. Menger,  J.-M. Mewes,  
 S. A. Mewes,  P. Morgante,  J. W. Mullinax,  K. J. Oosterbaan,  G. Paran,  
 Alexander C. Paul,  Suranjan K. Paul,  F. Pavosevic,  Zheng Pei,  S. Prager,  
 E. I. Proynov,  E. Ramos,  B. Rana,  A. E. Rask,  A. Rettig,  R. M. Richard,  
 F. Rob,  E. Rossomme,  T. Scheele,  M. Scheurer,  M. Schneider,  
 N. Sergueev,  S. M. Sharada,  W. Skomorowski,  D. W. Small,  C. J. Stein,  
 Yu-Chuan Su,  E. J. Sundstrom,  Zhen Tao,  J. Thirman,  T. Tsuchimochi,  
 N. M. Tubman,  S. P. Veccham,  O. Vydrov,  J. Wenzel,  J. Witte,  A. Yamada,  
 Kun Yao,  S. Yeganeh,  S. R. Yost,  A. Zech,  Igor Ying Zhang,  Xing Zhang,  
 Yu Zhang,  D. Zuev,  A. Aspuru-Guzik,  A. T. Bell,  N. A. Besley,  
 K. B. Bravaya,  B. R. Brooks,  D. Casanova,  Jeng-Da Chai,  S. Coriani,  
 C. J. Cramer,  A. E. DePrince, III,  R. A. DiStasio Jr.,  A. Dreuw,  
 B. D. Dunietz,  T. R. Furlani,  W. A. Goddard III,  S. Grimme,  
 S. Hammes-Schiffer,  T. Head-Gordon,  W. J. Hehre,  Chao-Ping Hsu,  
 T.-C. Jagau,  Yousung Jung,  A. Klamt,  Jing Kong,  D. S. Lambrecht,  
 WanZhen Liang,  N. J. Mayhall,  C. W. McCurdy,  J. B. Neaton,  T. Neudecker,  
 C. Ochsenfeld,  J. A. Parkhill,  R. Peverati,  V. A. Rassolov,  Yihan Shao,  
 L. V. Slipchenko,  R. P. Steele,  J. E. Subotnik,  A. J. W. Thom,  
 A. Tkatchenko,  D. G. Truhlar,  T. Van Voorhis,  T. A. Wesolowski,  
 K. B. Whaley,  H. L. Woodcock III,  P. M. Zimmerman,  S. Faraji,  
 P. M. W. Gill,  M. Head-Gordon,  J. M. Herbert,  A. I. Krylov

 Additional authors since Version 5.4.0: 
 Chandrima Chakravarty,  L. Cunha,  R. Kang,  Yongbin Kim,  S. Kotaru,  
 Shaozhi Li,  Xiangyuan Li,  F. Matz,  A. Molle,  V. Parravicini,  
 Haisheng Ren,  Hengyuan Shen,  Yingli Su,  Hung-Yi Tsai,  C. Utku,  
 Fang Wang,  Jeff Yang,  F. Zeller

 Contributors to earlier versions of Q-Chem not listed above: 
 R. D. Adamson,  B. Austin,  R. Baer,  J. Baker,  G. J. O. Beran,  
 K. Brandhorst,  S. T. Brown,  E. F. C. Byrd,  Arup K. Chakraborty,  
 G. K. L. Chan,  Chun-Min Chang,  Yunqing Chen,  C.-L. Cheng,  
 Siu Hung Chien,  D. M. Chipman,  D. L. Crittenden,  H. Dachsel,  
 R. J. Doerksen,  A. D. Dutoi,  R. G. Edgar,  J. Fosso-Tande,  
 L. Fusti-Molnar,  D. Ghosh,  A. Ghysels,  A. Golubeva-Zadorozhnaya,  
 J. Gonthier,  M. S. Gordon,  S. R. Gwaltney,  G. Hawkins,  J. E. Herr,  
 A. Heyden,  S. Hirata,  E. G. Hohenstein,  G. Kedziora,  F. J. Keil,  
 C. Kelley,  Jihan Kim,  R. A. King,  R. Z. Khaliullin,  P. P. Korambath,  
 W. Kurlancheek,  A. Laurent,  A. M. Lee,  M. S. Lee,  S. V. Levchenko,  
 Ching Yeh Lin,  D. Liotard,  E. Livshits,  R. C. Lochan,  I. Lotan,  
 L. A. Martinez-Martinez,  P. E. Maslen,  N. Nair,  D. P. O'Neill,  
 D. Neuhauser,  E. Neuscamman,  C. M. Oana,  R. Olivares-Amaya,  R. Olson,  
 T. M. Perrine,  B. Peters,  P. A. Pieniazek,  A. Prociuk,  Y. M. Rhee,  
 J. Ritchie,  M. A. Rohrdanz,  E. Rosta,  N. J. Russ,  H. F. Schaefer III,  
 M. W. Schmidt,  N. E. Schultz,  S. Sharma,  N. Shenvi,  C. D. Sherrill,  
 A. C. Simmonett,  A. Sodt,  T. Stein,  D. Stuck,  K. S. Thanthiriwatte,  
 V. Vanovschi,  L. Vogt,  Tao Wang,  A. Warshel,  M. A. Watson,  
 C. F. Williams,  Q. Wu,  X. Xu,  Jun Yang,  W. Zhang,  Yan Zhao

   Please cite Q-Chem as follows:
  "Software for the frontiers of quantum chemistry:
   An overview of developments in the Q-Chem 5 package"
   J. Chem. Phys. 155, 084801 (2021)
   https://doi.org/10.1063/5.0055522 (open access)

 Q-Chem 5.4.2 for Intel X86 EM64T Linux

 Parts of Q-Chem use Armadillo 9.900.5 (Nocturnal Misbehaviour).
 http://arma.sourceforge.net/

 Q-Chem begins on Fri Feb 28 14:18:28 2025  

 Host: 
0

     Scratch files written to /scratch/qchem132552//
 Dec1321 |scratch|qcdevops|jenkins|workspace|build_RNUM 5684   
 Processing $rem in /home/kchung25/qchem/5.4.0/config/preferences:
 Processing $rem in /home/kchung25/.qchemrc:

 Q-Chem warning in module libgen/rem_setup.C, line 3079:

 Neither GIA nor STOLL is specified by user. Use STOLL as the default


 Checking the input file for inconsistencies... 	...done.

--------------------------------------------------------------
User input:
--------------------------------------------------------------
$molecule
0 1
--
0 1
C    1.655811  -1.171747   0.509564
C    1.795850  -0.093145  -0.528686
O    2.003725   1.125419   0.149762
H    2.071690   1.835601  -0.491492
H    1.461846  -2.141374   0.045964
H    0.838679  -0.935019   1.198796
H    2.565024  -1.253844   1.107180
H    0.890088  -0.047115  -1.152184
H    2.636862  -0.321483  -1.198187
--
0 1
C   -1.556423   1.252588   0.087970
C   -2.276187  -0.062253   0.262607
O   -1.702117  -1.106192  -0.492968
H   -0.840962  -1.312772  -0.118603
H   -2.067779   2.051162   0.630320
H   -1.520351   1.525167  -0.969614
H   -0.528570   1.202618   0.461108
H   -3.309605   0.021323  -0.084215
H   -2.324097  -0.330739   1.327845
$end

$rem
JOBTYPE          eda
EDA2             1
METHOD           wB97M-V
BASIS            def2-TZVPPD
SYMMETRY         false
MEM_TOTAL        50000
MEM_STATIC       10000
THRESH           14
SCF_CONVERGENCE  8
XC_GRID          000099000590
NL_GRID          1
EDA_CLS_DISP     true
FD_MAT_VEC_PROD  FALSE
$end
--------------------------------------------------------------
 ----------------------------------------------------------------
             Standard Nuclear Orientation (Angstroms)
    I     Atom           X                Y                Z
 ----------------------------------------------------------------
    1      C       1.6558110898    -1.1717468482     0.5095643257
    2      C       1.7958500567    -0.0931452422    -0.5286860881
    3      O       2.0037251461     1.1254190047     0.1497614410
    4      H       2.0716901272     1.8356007620    -0.4914928298
    5      H       1.4618460238    -2.1413740151     0.0459647024
    6      H       0.8386791453    -0.9350185611     1.1987962930
    7      H       2.5650241278    -1.2538436562     1.1071802942
    8      H       0.8900880156    -0.0471154439    -1.1521840433
    9      H       2.6368620028    -0.3214835228    -1.1981870601
   10      C      -1.5564228537     1.2525881071     0.0879696372
   11      C      -2.2761868881    -0.0622528021     0.2626071792
   12      O      -1.7021169766    -1.1061921055    -0.4929674688
   13      H      -0.8409619582    -1.3127719956    -0.1186024504
   14      H      -2.0677787884     2.0511623283     0.6303193729
   15      H      -1.5203509165     1.5251667094    -0.9696144674
   16      H      -0.5285698299     1.2026182107     0.4611075855
   17      H      -3.3096049089     0.0213231043    -0.0842147813
   18      H      -2.3240968246    -0.3307384012     1.3278452831
 ----------------------------------------------------------------
 Molecular Point Group                 C1    NOp =  1
 Largest Abelian Subgroup              C1    NOp =  1
 Nuclear Repulsion Energy =         256.00841137 hartrees
 There are       26 alpha and       26 beta electrons
 Requested basis set is def2-TZVPPD
 There are 164 shells and 432 basis functions

 Q-Chem warning in module libmdc/get_mega.C, line 171:

 Allowed MEM_STATIC has been capped at MEM_STATIC=8191.
 Reduce the value of MEM_STATIC to silence this warning.


 Total QAlloc Memory Limit  50000 MB
 Mega-Array Size      8007 MB
 MEM_STATIC part      8191 MB
 A cutoff of  1.0D-14 yielded  12621 shell pairs
 There are     87323 function pairs (    107558 Cartesian)
 Smallest overlap matrix eigenvalue = 6.48E-06

 Scale SEOQF with 1.000000e-01/1.000000e-01/1.000000e-01

 Standard Electronic Orientation quadrupole field applied
 Nucleus-field energy     =     0.0000000091 hartrees

 -----------------------------------------------------------------------
  General SCF calculation program by
  Eric Jon Sundstrom, Paul Horn, Yuezhi Mao, Dmitri Zuev, Alec White,
  David Stuck, Shaama M.S., Shane Yost, Joonho Lee, David Small,
  Daniel Levine, Susi Lehtola, Hugh Burton, Evgeny Epifanovsky,
  Bang C. Huynh
 -----------------------------------------------------------------------
================================================================
                 ALMO-EDA with the EDA2 driver                  
================================================================
 The second-generation ALMO-EDA (for DFT):                      
 P. R. Horn, Y. Mao and M. Head-Gordon, PCCP, 18, 23067 (2016)  
 Y. Mao et al. Annu. Rev. Phys. Chem. 72, 641 (2021)            
 Decomposition of the frozen energy:                            
 P. R. Horn, Y. Mao and M. Head-Gordon, JCP, 144, 114107 (2016) 
 FERF model for polarization:                                   
 P. R. Horn and M. Head-Gordon, JCP, 143, 114111 (2015)         
================================================================
 Using eda2 option set 1
 Option set summary: Frozen orbital wavefunction, initial wavefunction decomposition, and nDQ polarization.
--------------------------------
Printing EDA Options
--------------------------------
eda_child_super_basis      0
fragmo_guess_mode          0
child_mp                   1
child_mp_orders            232
cls_elec                   1
cls_disp                   1
scfmi_mode                 1
scfmi_occs                 0
scfmi_virts                0
frz_relax                  0
frz_relax_method           0
dc_pen_start               0
dc_pen_conv                0
dc_pen_increment           0
dc_pen_steps               0
dc_pen_thresh_factor       0
dc_pen_pre_newton_thresh   0
frz_ortho_decomp           1
frz_ortho_decomp_conv      6
plot_mo_ortho_frz          0
frgm_method                2
scfmi_freeze_ss            0
separate_rehyb             0
plot_diff_den              0
eda_nocv                   0
eda_vct_relax              1
disp_free_x                0
disp_free_c                0
eda_bsse                   0
eda_pct_a                  0
eda_covp                   0
--------------------------------
Attempting to make child job directory: /scratch/qchem132552//Frg1/
Attempting to make child job directory: /scratch/qchem132552//Frg2/
Creating input file /scratch/qchem132552/Frg1.input
using default PutDataFrgm: nothing
calling putenv with: QCSCRATCH=/scratch/qchem132552/ 
Spawning Job For Fragment 0
Done Job For Fragment 0
calling putenv with: QCSCRATCH=/scratch 
calling putenv with: QCTHREADS=6 
Creating input file /scratch/qchem132552/Frg2.input
using default PutDataFrgm: nothing
calling putenv with: QCSCRATCH=/scratch/qchem132552/ 
Spawning Job For Fragment 1
Done Job For Fragment 1
calling putenv with: QCSCRATCH=/scratch 
calling putenv with: QCTHREADS=6 
Doing General SCFMI
 Exchange:     0.1500 Hartree-Fock + 1.0000 wB97M-V + LR-HF
 Correlation:  1.0000 wB97M-V
 Using Euler-Maclaurin-Lebedev (99,590) quadrature formula
 Nonlocal Correlation:  VV10 with C = 0.0100 and b = 6.00 and scale = 1.00000
 Grid used for NLC:  SG-1 standard quadrature
performing fock build before subrot guess so that all methods have access
Printing subrot_rss_gen Method Specification:
Occupied Subspace Method is 0
Virtual Subspace Method is 0
Energy of the unrelaxed supersystem initial determinant -310.060256834254
write pseudocanon occs and virts to disk
write pseudocanon orbital energies to disk
Tolerance of ortho_decomp_scf: 1.00e-06
GDM subspace size: 20
Beginning the Orthogonal Decomposition of the Initial Supersystem Wavefunction
    1    -310.0322359256      5.11e-02     ortho_decomp Preconditoned Steepest Descent
    2    -310.0360612543      1.89e-03     ortho_decomp BFGS Step
    3    -310.0360814834      1.02e-04     ortho_decomp BFGS Step
    4    -310.0360814962      4.01e-06     ortho_decomp BFGS Step
    5    -310.0360814963      2.18e-07     ortho_decomp 00000 Convergence criterion met
 Hartree-Fock
 Hartree-Fock
 Hartree-Fock
 Exchange:     0.1500 Hartree-Fock + 1.0000 wB97M-V + LR-HF
 Correlation:  1.0000 wB97M-V
 Using Euler-Maclaurin-Lebedev (99,590) quadrature formula
 Nonlocal Correlation:  VV10 with C = 0.0100 and b = 6.00 and scale = 1.00000
 Grid used for NLC:  SG-1 standard quadrature
 Long-range K will be added via erf
 Coulomb attenuation parameter = 0.3 bohr**(-1)
 Nonlocal correlation = 2.037912009437e-01
Doing General SCFMI
 Exchange:     0.1500 Hartree-Fock + 1.0000 wB97M-V + LR-HF
 Correlation:  1.0000 wB97M-V
 Using Euler-Maclaurin-Lebedev (99,590) quadrature formula
 Nonlocal Correlation:  VV10 with C = 0.0100 and b = 6.00 and scale = 1.00000
 Grid used for NLC:  SG-1 standard quadrature
performing fock build at end of subrot_r(subrot) constructor so that all methods have access
<S^2> of initial wavefunction before polarization iterations 0.0000000000
Beginning iterations for the determination of the polarized wavefunction
Energy prior to optimization (guess energy) = -310.060256834255
Begin Timing: Total SCF Calculation
begin iterations for algorithm: DIIS         
the SCF tolerance is set to 1.00e-08
    1    -310.0602568343      1.84e-04     00000 
    2    -310.0612474244      6.97e-05     00000 
    3    -310.0613287537      3.74e-05     00000 
    4    -310.0613497743      1.53e-05     00000 
    5    -310.0613538443      4.37e-06     00000 
    6    -310.0613546700      1.92e-06     00000 
    7    -310.0613547957      9.69e-07     00000 
    8    -310.0613548184      4.82e-07     00000 
    9    -310.0613548215      2.68e-07     00000 
   10    -310.0613548221      1.45e-07     00000 
   11    -310.0613548224      5.07e-08     00000 
   12    -310.0613548225      1.58e-08     00000 
   13    -310.0613548225      6.90e-09     00000 Convergence criterion met
write pseudocanon occs and virts to disk
write pseudocanon orbital energies to disk
Timing for Total SCF: 325.00s (wall), 1952.03s (cpu)
<S^2> of polarized wavefunction after polarization iterations 0.0000000000
relaxing scfmi constraint to allow all rotations in the entire AO span
Doing General SCFMI
 Exchange:     0.1500 Hartree-Fock + 1.0000 wB97M-V + LR-HF
 Correlation:  1.0000 wB97M-V
 Using Euler-Maclaurin-Lebedev (99,590) quadrature formula
 Nonlocal Correlation:  VV10 with C = 0.0100 and b = 6.00 and scale = 1.00000
 Grid used for NLC:  SG-1 standard quadrature
performing fock build at end of subrot_r(subrot) constructor so that all methods have access
<S^2> of polarized wavefunction before ct-allowed iterations 0.0000000000
Beginning iterations for the determination of the CT-Allowed wavefunction
Energy prior to optimization (guess energy) = -310.061354822493
Begin Timing: Total SCF Calculation
begin iterations for algorithm: DIIS         
the SCF tolerance is set to 1.00e-08
    1    -310.0613548225      1.13e-04     00000 
    2    -310.0626860545      1.35e-05     00000 
    3    -310.0627244069      2.58e-06     00000 
    4    -310.0627251683      2.23e-06     00000 
    5    -310.0627254890      2.59e-07     00000 
    6    -310.0627254978      1.09e-07     00000 
    7    -310.0627254994      2.39e-08     00000 
    8    -310.0627254995      7.26e-09     00000 Convergence criterion met
write pseudocanon occs and virts to disk
write pseudocanon orbital energies to disk
Timing for Total SCF: 191.00s (wall), 1145.86s (cpu)
<S^2> of ct_allowed wavefunction after ct-allowed iterations 0.0000000000

================================
        Results of EDA2         
================================
Basic EDA Quantities
--------------------
Fragment Energies (Ha):
1 -155.0295167526
2 -155.0293558070
--------------------
  E_prp (kJ/mol) = 0.0000
  E_frz (kJ/mol) = -3.6345
  E_pol (kJ/mol) = -2.8828
  E_vct (kJ/mol) = -3.5988
  E_int (kJ/mol) = -10.1160
--------------------


Decomposition of frozen interaction energy
--------------------
  --------------------
  Orthogonal Frozen Decomposition:
  --------------------
     E_elec   (ELEC)   (kJ/mol) = -31.7956
     E_pauli  (PAULI)  (kJ/mol) = 45.6304
     E_disp   (DISP)   (kJ/mol) = -17.4693
  --------------------
  Classical Frozen Decomposition:
  --------------------
     E_cls_elec  (CLS ELEC)  (kJ/mol) = -12.3541
     E_mod_pauli (MOD PAULI) (kJ/mol) = 23.7789 (FRZ - CLS ELEC - CLS DISP)
     E_cls_disp  (CLS DISP)  (kJ/mol) = -15.0592
  --------------------
--------------------

Simplified EDA Summary (kJ/mol)
--------------------
 PREPARATION      0.0000
 FROZEN           -3.6345 (ELEC + PAULI + DISP)
[ELEC + PAULI = 11.4248, DISP = -15.0592]
 POLARIZATION    -2.8828
 CHARGE TRANSFER -3.5988
 TOTAL           -10.1160     (PRP + FRZ + POL + CT)
--------------------
 
 --------------------------------------------------------------
 
                    Orbital Energies (a.u.)
 --------------------------------------------------------------
 
 Alpha MOs
 -- Occupied --
-19.3395 -19.3277 -10.3939 -10.3828 -10.3409 -10.3256  -1.1615  -1.1494
 -0.8845  -0.8670  -0.7373  -0.7365  -0.6408  -0.6166  -0.5877  -0.5581
 -0.5350  -0.5222  -0.4967  -0.4842  -0.4793  -0.4654  -0.4453  -0.4219
 -0.3881  -0.3769
 -- Virtual --
  0.0324   0.0446   0.0552   0.0619   0.0795   0.0812   0.0914   0.0963
  0.1069   0.1173   0.1288   0.1342   0.1460   0.1514   0.1559   0.1576
  0.1715   0.1827   0.1862   0.1971   0.2027   0.2061   0.2176   0.2265
  0.2361   0.2402   0.2533   0.2593   0.2636   0.2753   0.2812   0.2845
  0.2909   0.2960   0.3015   0.3023   0.3086   0.3100   0.3141   0.3246
  0.3284   0.3327   0.3362   0.3371   0.3437   0.3474   0.3548   0.3634
  0.3665   0.3757   0.3790   0.3876   0.3912   0.3962   0.4007   0.4071
  0.4177   0.4277   0.4284   0.4314   0.4392   0.4450   0.4489   0.4592
  0.4643   0.4665   0.4724   0.4789   0.4876   0.4892   0.4986   0.5092
  0.5137   0.5184   0.5267   0.5350   0.5433   0.5482   0.5607   0.5702
  0.5738   0.5857   0.5940   0.6046   0.6136   0.6266   0.6367   0.6400
  0.6464   0.6697   0.6724   0.6774   0.6818   0.6937   0.7029   0.7114
  0.7166   0.7276   0.7414   0.7426   0.7516   0.7536   0.7628   0.7666
  0.7693   0.7831   0.7900   0.8022   0.8174   0.8191   0.8235   0.8343
  0.8492   0.8645   0.8720   0.8843   0.8963   0.9056   0.9393   0.9457
  0.9516   0.9647   0.9830   0.9957   1.0059   1.0183   1.0225   1.0282
  1.0445   1.0540   1.0693   1.0866   1.1178   1.1448   1.1604   1.1618
  1.1758   1.1913   1.2053   1.2095   1.2177   1.2413   1.2588   1.2626
  1.2700   1.2791   1.2944   1.3059   1.3138   1.3208   1.3456   1.3528
  1.3696   1.3725   1.3762   1.3970   1.4064   1.4263   1.4373   1.4479
  1.4522   1.4657   1.4752   1.5090   1.5133   1.5275   1.5363   1.5878
  1.5897   1.6022   1.6467   1.6535   1.6706   1.6789   1.6904   1.6929
  1.7040   1.7176   1.7254   1.7475   1.7545   1.7772   1.8038   1.8153
  1.8166   1.8647   1.9453   1.9549   1.9905   1.9937   2.0140   2.0604
  2.0781   2.1026   2.1308   2.1582   2.1795   2.2307   2.2459   2.2677
  2.2854   2.3099   2.3419   2.3586   2.3950   2.4215   2.4553   2.4679
  2.4948   2.5180   2.6854   2.7173   2.7316   2.7549   2.7878   2.7971
  2.8432   2.8603   2.8658   2.8799   2.8975   2.9032   2.9206   2.9289
  2.9563   2.9628   2.9712   2.9785   2.9948   3.0205   3.0280   3.0374
  3.0617   3.0706   3.0861   3.1191   3.1381   3.1486   3.1601   3.1845
  3.1929   3.2066   3.2234   3.2266   3.2623   3.2677   3.2757   3.2795
  3.2941   3.3098   3.3204   3.3341   3.3477   3.3699   3.3724   3.3977
  3.4291   3.4374   3.4637   3.4734   3.5039   3.5086   3.5453   3.5479
  3.5731   3.5846   3.6048   3.6088   3.6352   3.6440   3.6563   3.7006
  3.7070   3.7080   3.7402   3.7606   3.7723   3.7801   3.7980   3.8132
  3.8400   3.8641   3.8930   3.9098   3.9375   3.9443   3.9864   3.9987
  4.0083   4.0208   4.0348   4.0436   4.0722   4.0851   4.0996   4.1089
  4.1162   4.1384   4.1526   4.1658   4.1725   4.1931   4.1997   4.2193
  4.2432   4.2554   4.2613   4.2696   4.2822   4.2953   4.3087   4.3270
  4.3576   4.3669   4.3878   4.4167   4.4224   4.4526   4.4570   4.4771
  4.4888   4.5166   4.5209   4.5407   4.5434   4.5750   4.6126   4.6360
  4.6652   4.6788   4.6985   4.7069   4.7362   4.7740   4.8044   4.8246
  4.8397   4.8760   4.9373   4.9406   4.9595   4.9685   4.9775   5.0013
  5.0171   5.0343   5.0448   5.1057   5.1141   5.1721   5.2372   5.2491
  5.3025   5.3067   5.3263   5.3714   5.4030   5.4146   5.4224   5.4393
  5.4555   5.4616   5.4716   5.4895   5.5246   5.5391   5.5678   5.5954
  5.6306   5.6450   5.6500   5.6781   5.7384   5.7569   5.7832   5.7986
  5.8234   5.8471   5.9083   5.9550   6.1161   6.1206   6.2614   6.3138
  6.6747   6.6947   6.8288   6.8725   6.8781   6.9084   6.9566   6.9788
  7.0704   7.0934   7.3659   7.3714   7.5585   7.5842   7.7808   7.8376
 23.7730  23.7986  24.0866  24.1304  44.8092  44.8335
 --------------------------------------------------------------
 
          Ground-State Mulliken Net Atomic Charges

     Atom                 Charge (a.u.)
  ----------------------------------------
      1 C                    -1.078015
      2 C                    -0.131733
      3 O                    -0.399400
      4 H                     0.135057
      5 H                     0.297634
      6 H                     0.247306
      7 H                     0.311530
      8 H                     0.257977
      9 H                     0.370551
     10 C                    -0.770494
     11 C                    -0.239913
     12 O                    -0.454169
     13 H                     0.176861
     14 H                     0.321877
     15 H                     0.250658
     16 H                     0.122529
     17 H                     0.295920
     18 H                     0.285823
  ----------------------------------------
  Sum of atomic charges =     0.000000

 -----------------------------------------------------------------
                    Cartesian Multipole Moments
 -----------------------------------------------------------------
    Charge (ESU x 10^10)
                -0.0000
    Dipole Moment (Debye)
         X       0.9900      Y       0.7339      Z      -0.2466
       Tot       1.2567
    Quadrupole Moments (Debye-Ang)
        XX     -41.4537     XY      -3.7375     YY     -39.8547
        XZ      -5.3173     YZ      -3.8458     ZZ     -41.2660
    Octopole Moments (Debye-Ang^2)
       XXX      -0.7516    XXY       6.6549    XYY      10.6625
       YYY       8.3176    XXZ      -3.7909    XYZ      -2.6566
       YYZ      -3.2141    XZZ       3.0602    YZZ       1.9570
       ZZZ      -1.0270
    Hexadecapole Moments (Debye-Ang^3)
      XXXX    -884.6549   XXXY      -1.2963   XXYY    -202.1132
      XYYY      23.1170   YYYY    -295.2097   XXXZ     -14.0923
      XXYZ     -14.9249   XYYZ     -12.3635   YYYZ      -4.3181
      XXZZ    -167.4773   XYZZ       3.8113   YYZZ     -70.6389
      XZZZ      -0.1173   YZZZ      -2.0875   ZZZZ    -115.2732
 -----------------------------------------------------------------
 Total job time:  1560.44s(wall), 5860.12s(cpu) 
 Fri Feb 28 14:44:29 2025

        *************************************************************
        *                                                           *
        *  Thank you very much for using Q-Chem.  Have a nice day.  *
        *                                                           *
        *************************************************************


