
Running Job 1 of 1 004_ethanol_dimer_68_almo.inp
qchem 004_ethanol_dimer_68_almo.inp_170373.0 /scratch/qchem170373/ 6
/home/kchung25/qchem/5.4.0/exe/qcprog.exe_s 004_ethanol_dimer_68_almo.inp_170373.0 /scratch/qchem170373/
                  Welcome to Q-Chem
     A Quantum Leap Into The Future Of Chemistry


 Q-Chem 5.4, Q-Chem, Inc., Pleasanton, CA (2021)

 E. Epifanovsky,  A. T. B. Gilbert,  Xintian Feng,  Joonho Lee,  Yuezhi Mao,  
 N. Mardirossian,  P. Pokhilko,  A. White,  M. Wormit,  M. P. Coons,  
 A. L. Dempwolff,  Zhengting Gan,  D. Hait,  P. R. Horn,  L. D. Jacobson,  
 I. Kaliman,  J. Kussmann,  A. W. Lange,  Ka Un Lao,  D. S. Levine,  Jie Liu,  
 S. C. McKenzie,  A. F. Morrison,  K. Nanda,  F. Plasser,  D. R. Rehn,  
 M. L. Vidal,  Zhi-Qiang You,  Ying Zhu,  B. Alam,  B. Albrecht,  
 A. Aldossary,  E. Alguire,  J. H. Andersen,  D. Barton,  K. Begam,  A. Behn,  
 Y. A. Bernard,  E. J. Berquist,  H. Burton,  A. Carreras,  K. Carter-Fenk,  
 Romit Chakraborty,  A. D. Chien,  K. D. Closser,  V. Cofer-Shabica,  
 S. Dasgupta,  Jia Deng,  M. de Wergifosse,  M. Diedenhofen,  Hainam Do,  
 S. Ehlert,  Po-Tung Fang,  S. Fatehi,  Qingguo Feng,  T. Friedhoff,  
 J. Gayvert,  Qinghui Ge,  G. Gidofalvi,  M. Goldey,  J. Gomes,  
 C. Gonzalez-Espinoza,  S. Gulania,  A. Gunina,  M. W. D. Hanson-Heine,  
 P. H. P. Harbach,  A. W. Hauser,  M. F. Herbst,  M. Hernandez Vera,  
 M. Hodecker,  Z. C. Holden,  S. Houck,  Xunkun Huang,  Kerwin Hui,  
 B. C. Huynh,  M. Ivanov,  Hyunjun Ji,  Hanjie Jiang,  B. Kaduk,  S. Kaehler,  
 K. Khistyaev,  Jaehoon Kim,  P. Klunzinger,  Z. Koczor-Benda,  
 Joong Hoon Koh,  D. Kosenkov,  L. Koulias,  T. Kowalczyk,  C. M. Krauter,  
 K. Kue,  A. Kunitsa,  T. Kus,  A. Landau,  K. V. Lawler,  D. Lefrancois,  
 S. Lehtola,  Rain Li,  Yi-Pei Li,  Jiashu Liang,  M. Liebenthal,  
 Hung-Hsuan Lin,  You-Sheng Lin,  Fenglai Liu,  Kuan-Yu Liu,  
 M. Loipersberger,  A. Luenser,  A. Manjanath,  P. Manohar,  E. Mansoor,  
 S. F. Manzer,  Shan-Ping Mao,  A. V. Marenich,  T. Markovich,  S. Mason,  
 S. A. Maurer,  P. F. McLaughlin,  M. F. S. J. Menger,  J.-M. Mewes,  
 S. A. Mewes,  P. Morgante,  J. W. Mullinax,  K. J. Oosterbaan,  G. Paran,  
 Alexander C. Paul,  Suranjan K. Paul,  F. Pavosevic,  Zheng Pei,  S. Prager,  
 E. I. Proynov,  E. Ramos,  B. Rana,  A. E. Rask,  A. Rettig,  R. M. Richard,  
 F. Rob,  E. Rossomme,  T. Scheele,  M. Scheurer,  M. Schneider,  
 N. Sergueev,  S. M. Sharada,  W. Skomorowski,  D. W. Small,  C. J. Stein,  
 Yu-Chuan Su,  E. J. Sundstrom,  Zhen Tao,  J. Thirman,  T. Tsuchimochi,  
 N. M. Tubman,  S. P. Veccham,  O. Vydrov,  J. Wenzel,  J. Witte,  A. Yamada,  
 Kun Yao,  S. Yeganeh,  S. R. Yost,  A. Zech,  Igor Ying Zhang,  Xing Zhang,  
 Yu Zhang,  D. Zuev,  A. Aspuru-Guzik,  A. T. Bell,  N. A. Besley,  
 K. B. Bravaya,  B. R. Brooks,  D. Casanova,  Jeng-Da Chai,  S. Coriani,  
 C. J. Cramer,  A. E. DePrince, III,  R. A. DiStasio Jr.,  A. Dreuw,  
 B. D. Dunietz,  T. R. Furlani,  W. A. Goddard III,  S. Grimme,  
 S. Hammes-Schiffer,  T. Head-Gordon,  W. J. Hehre,  Chao-Ping Hsu,  
 T.-C. Jagau,  Yousung Jung,  A. Klamt,  Jing Kong,  D. S. Lambrecht,  
 WanZhen Liang,  N. J. Mayhall,  C. W. McCurdy,  J. B. Neaton,  T. Neudecker,  
 C. Ochsenfeld,  J. A. Parkhill,  R. Peverati,  V. A. Rassolov,  Yihan Shao,  
 L. V. Slipchenko,  R. P. Steele,  J. E. Subotnik,  A. J. W. Thom,  
 A. Tkatchenko,  D. G. Truhlar,  T. Van Voorhis,  T. A. Wesolowski,  
 K. B. Whaley,  H. L. Woodcock III,  P. M. Zimmerman,  S. Faraji,  
 P. M. W. Gill,  M. Head-Gordon,  J. M. Herbert,  A. I. Krylov

 Additional authors since Version 5.4.0: 
 Chandrima Chakravarty,  L. Cunha,  R. Kang,  Yongbin Kim,  S. Kotaru,  
 Shaozhi Li,  Xiangyuan Li,  F. Matz,  A. Molle,  V. Parravicini,  
 Haisheng Ren,  Hengyuan Shen,  Yingli Su,  Hung-Yi Tsai,  C. Utku,  
 Fang Wang,  Jeff Yang,  F. Zeller

 Contributors to earlier versions of Q-Chem not listed above: 
 R. D. Adamson,  B. Austin,  R. Baer,  J. Baker,  G. J. O. Beran,  
 K. Brandhorst,  S. T. Brown,  E. F. C. Byrd,  Arup K. Chakraborty,  
 G. K. L. Chan,  Chun-Min Chang,  Yunqing Chen,  C.-L. Cheng,  
 Siu Hung Chien,  D. M. Chipman,  D. L. Crittenden,  H. Dachsel,  
 R. J. Doerksen,  A. D. Dutoi,  R. G. Edgar,  J. Fosso-Tande,  
 L. Fusti-Molnar,  D. Ghosh,  A. Ghysels,  A. Golubeva-Zadorozhnaya,  
 J. Gonthier,  M. S. Gordon,  S. R. Gwaltney,  G. Hawkins,  J. E. Herr,  
 A. Heyden,  S. Hirata,  E. G. Hohenstein,  G. Kedziora,  F. J. Keil,  
 C. Kelley,  Jihan Kim,  R. A. King,  R. Z. Khaliullin,  P. P. Korambath,  
 W. Kurlancheek,  A. Laurent,  A. M. Lee,  M. S. Lee,  S. V. Levchenko,  
 Ching Yeh Lin,  D. Liotard,  E. Livshits,  R. C. Lochan,  I. Lotan,  
 L. A. Martinez-Martinez,  P. E. Maslen,  N. Nair,  D. P. O'Neill,  
 D. Neuhauser,  E. Neuscamman,  C. M. Oana,  R. Olivares-Amaya,  R. Olson,  
 T. M. Perrine,  B. Peters,  P. A. Pieniazek,  A. Prociuk,  Y. M. Rhee,  
 J. Ritchie,  M. A. Rohrdanz,  E. Rosta,  N. J. Russ,  H. F. Schaefer III,  
 M. W. Schmidt,  N. E. Schultz,  S. Sharma,  N. Shenvi,  C. D. Sherrill,  
 A. C. Simmonett,  A. Sodt,  T. Stein,  D. Stuck,  K. S. Thanthiriwatte,  
 V. Vanovschi,  L. Vogt,  Tao Wang,  A. Warshel,  M. A. Watson,  
 C. F. Williams,  Q. Wu,  X. Xu,  Jun Yang,  W. Zhang,  Yan Zhao

   Please cite Q-Chem as follows:
  "Software for the frontiers of quantum chemistry:
   An overview of developments in the Q-Chem 5 package"
   J. Chem. Phys. 155, 084801 (2021)
   https://doi.org/10.1063/5.0055522 (open access)

 Q-Chem 5.4.2 for Intel X86 EM64T Linux

 Parts of Q-Chem use Armadillo 9.900.5 (Nocturnal Misbehaviour).
 http://arma.sourceforge.net/

 Q-Chem begins on Sat Mar  1 04:00:02 2025  

 Host: 
0

     Scratch files written to /scratch/qchem170373//
 Dec1321 |scratch|qcdevops|jenkins|workspace|build_RNUM 5684   
 Processing $rem in /home/kchung25/qchem/5.4.0/config/preferences:
 Processing $rem in /home/kchung25/.qchemrc:

 Q-Chem warning in module libgen/rem_setup.C, line 3079:

 Neither GIA nor STOLL is specified by user. Use STOLL as the default


 Checking the input file for inconsistencies... 	...done.

--------------------------------------------------------------
User input:
--------------------------------------------------------------
$molecule
0 1
--
0 1
C    2.521503   1.163340  -0.337802
C    2.426516  -0.063692   0.523887
O    2.086643  -1.151601  -0.309039
H    2.055413  -1.952933   0.217296
H    2.780880   2.039217   0.258849
H    1.567968   1.353274  -0.835065
H    3.282709   1.030474  -1.108509
H    1.666051   0.082353   1.305854
H    3.383361  -0.244718   1.033392
--
0 1
C   -1.162206  -0.012488   0.304264
C   -2.437747  -0.279133  -0.453753
O   -3.575427   0.241443   0.195765
H   -3.440878   1.183242   0.327317
H   -0.298537  -0.461441  -0.194549
H   -1.229776  -0.415715   1.317539
H   -0.976632   1.064005   0.385188
H   -2.611313  -1.354782  -0.541506
H   -2.357366   0.110126  -1.479196
$end

$rem
JOBTYPE          eda
EDA2             1
METHOD           wB97M-V
BASIS            def2-TZVPPD
SYMMETRY         false
MEM_TOTAL        50000
MEM_STATIC       10000
THRESH           14
SCF_CONVERGENCE  8
XC_GRID          000099000590
NL_GRID          1
EDA_CLS_DISP     true
FD_MAT_VEC_PROD  FALSE
$end
--------------------------------------------------------------
 ----------------------------------------------------------------
             Standard Nuclear Orientation (Angstroms)
    I     Atom           X                Y                Z
 ----------------------------------------------------------------
    1      C       2.5215029030    -1.1633399844     0.3378020884
    2      C       2.4265159078     0.0636918068    -0.5238872095
    3      O       2.0866429638     1.1516010202     0.3090385347
    4      H       2.0554129681     1.9529328919    -0.2172966609
    5      H       2.7808798603    -2.0392171376    -0.2588487051
    6      H       1.5679679140    -1.3532738370     0.8350651659
    7      H       3.2827089314    -1.0304738156     1.1085090312
    8      H       1.6660508787    -0.0823533647    -1.3058541490
    9      H       3.3833608962     0.2447176563    -1.0333922848
   10      C      -1.1622060864     0.0124879564    -0.3042640809
   11      C      -2.4377470548     0.2791331763     0.4537528950
   12      O      -3.5754270897    -0.2414429527    -0.1957649406
   13      H      -3.4408781191    -1.1832419885    -0.3273167139
   14      H      -0.2985370583     0.4614410557     0.1945487811
   15      H      -1.2297761084     0.4157147096    -1.3175391776
   16      H      -0.9766321177    -1.0640050684    -0.3851878228
   17      H      -2.6113130233     1.3547822024     0.5415056367
   18      H      -2.3573660320    -0.1101255743     1.4791959878
 ----------------------------------------------------------------
 Molecular Point Group                 C1    NOp =  1
 Largest Abelian Subgroup              C1    NOp =  1
 Nuclear Repulsion Energy =         241.39214064 hartrees
 There are       26 alpha and       26 beta electrons
 Requested basis set is def2-TZVPPD
 There are 164 shells and 432 basis functions

 Q-Chem warning in module libmdc/get_mega.C, line 171:

 Allowed MEM_STATIC has been capped at MEM_STATIC=8191.
 Reduce the value of MEM_STATIC to silence this warning.


 Total QAlloc Memory Limit  50000 MB
 Mega-Array Size      8007 MB
 MEM_STATIC part      8191 MB
 A cutoff of  1.0D-14 yielded  12084 shell pairs
 There are     82432 function pairs (    101001 Cartesian)
 Smallest overlap matrix eigenvalue = 6.61E-06

 Scale SEOQF with 1.000000e-01/1.000000e-01/1.000000e-01

 Standard Electronic Orientation quadrupole field applied
 Nucleus-field energy     =     0.0000000124 hartrees

 -----------------------------------------------------------------------
  General SCF calculation program by
  Eric Jon Sundstrom, Paul Horn, Yuezhi Mao, Dmitri Zuev, Alec White,
  David Stuck, Shaama M.S., Shane Yost, Joonho Lee, David Small,
  Daniel Levine, Susi Lehtola, Hugh Burton, Evgeny Epifanovsky,
  Bang C. Huynh
 -----------------------------------------------------------------------
================================================================
                 ALMO-EDA with the EDA2 driver                  
================================================================
 The second-generation ALMO-EDA (for DFT):                      
 P. R. Horn, Y. Mao and M. Head-Gordon, PCCP, 18, 23067 (2016)  
 Y. Mao et al. Annu. Rev. Phys. Chem. 72, 641 (2021)            
 Decomposition of the frozen energy:                            
 P. R. Horn, Y. Mao and M. Head-Gordon, JCP, 144, 114107 (2016) 
 FERF model for polarization:                                   
 P. R. Horn and M. Head-Gordon, JCP, 143, 114111 (2015)         
================================================================
 Using eda2 option set 1
 Option set summary: Frozen orbital wavefunction, initial wavefunction decomposition, and nDQ polarization.
--------------------------------
Printing EDA Options
--------------------------------
eda_child_super_basis      0
fragmo_guess_mode          0
child_mp                   1
child_mp_orders            232
cls_elec                   1
cls_disp                   1
scfmi_mode                 1
scfmi_occs                 0
scfmi_virts                0
frz_relax                  0
frz_relax_method           0
dc_pen_start               0
dc_pen_conv                0
dc_pen_increment           0
dc_pen_steps               0
dc_pen_thresh_factor       0
dc_pen_pre_newton_thresh   0
frz_ortho_decomp           1
frz_ortho_decomp_conv      6
plot_mo_ortho_frz          0
frgm_method                2
scfmi_freeze_ss            0
separate_rehyb             0
plot_diff_den              0
eda_nocv                   0
eda_vct_relax              1
disp_free_x                0
disp_free_c                0
eda_bsse                   0
eda_pct_a                  0
eda_covp                   0
--------------------------------
Attempting to make child job directory: /scratch/qchem170373//Frg1/
Attempting to make child job directory: /scratch/qchem170373//Frg2/
Creating input file /scratch/qchem170373/Frg1.input
using default PutDataFrgm: nothing
calling putenv with: QCSCRATCH=/scratch/qchem170373/ 
Spawning Job For Fragment 0
Done Job For Fragment 0
calling putenv with: QCSCRATCH=/scratch 
calling putenv with: QCTHREADS=6 
Creating input file /scratch/qchem170373/Frg2.input
using default PutDataFrgm: nothing
calling putenv with: QCSCRATCH=/scratch/qchem170373/ 
Spawning Job For Fragment 1
Done Job For Fragment 1
calling putenv with: QCSCRATCH=/scratch 
calling putenv with: QCTHREADS=6 
Doing General SCFMI
 Exchange:     0.1500 Hartree-Fock + 1.0000 wB97M-V + LR-HF
 Correlation:  1.0000 wB97M-V
 Using Euler-Maclaurin-Lebedev (99,590) quadrature formula
 Nonlocal Correlation:  VV10 with C = 0.0100 and b = 6.00 and scale = 1.00000
 Grid used for NLC:  SG-1 standard quadrature
performing fock build before subrot guess so that all methods have access
Printing subrot_rss_gen Method Specification:
Occupied Subspace Method is 0
Virtual Subspace Method is 0
Energy of the unrelaxed supersystem initial determinant -310.060364432017
write pseudocanon occs and virts to disk
write pseudocanon orbital energies to disk
Tolerance of ortho_decomp_scf: 1.00e-06
GDM subspace size: 20
Beginning the Orthogonal Decomposition of the Initial Supersystem Wavefunction
    1    -310.0419391763      4.77e-02     ortho_decomp Preconditoned Steepest Descent
    2    -310.0445967360      1.48e-03     ortho_decomp BFGS Step
    3    -310.0446087734      1.00e-04     ortho_decomp BFGS Step
    4    -310.0446087858      3.87e-06     ortho_decomp BFGS Step
    5    -310.0446087859      1.73e-07     ortho_decomp 00000 Convergence criterion met
 Hartree-Fock
 Hartree-Fock
 Hartree-Fock
 Exchange:     0.1500 Hartree-Fock + 1.0000 wB97M-V + LR-HF
 Correlation:  1.0000 wB97M-V
 Using Euler-Maclaurin-Lebedev (99,590) quadrature formula
 Nonlocal Correlation:  VV10 with C = 0.0100 and b = 6.00 and scale = 1.00000
 Grid used for NLC:  SG-1 standard quadrature
 Long-range K will be added via erf
 Coulomb attenuation parameter = 0.3 bohr**(-1)
 Nonlocal correlation = 2.049890070755e-01
Doing General SCFMI
 Exchange:     0.1500 Hartree-Fock + 1.0000 wB97M-V + LR-HF
 Correlation:  1.0000 wB97M-V
 Using Euler-Maclaurin-Lebedev (99,590) quadrature formula
 Nonlocal Correlation:  VV10 with C = 0.0100 and b = 6.00 and scale = 1.00000
 Grid used for NLC:  SG-1 standard quadrature
performing fock build at end of subrot_r(subrot) constructor so that all methods have access
<S^2> of initial wavefunction before polarization iterations 0.0000000000
Beginning iterations for the determination of the polarized wavefunction
Energy prior to optimization (guess energy) = -310.060364432017
Begin Timing: Total SCF Calculation
begin iterations for algorithm: DIIS         
the SCF tolerance is set to 1.00e-08
    1    -310.0603644320      1.13e-04     00000 
    2    -310.0607341370      4.25e-05     00000 
    3    -310.0607639974      2.61e-05     00000 
    4    -310.0607732703      8.01e-06     00000 
    5    -310.0607743844      2.43e-06     00000 
    6    -310.0607745983      1.10e-06     00000 
    7    -310.0607746386      3.98e-07     00000 
    8    -310.0607746451      1.46e-07     00000 
    9    -310.0607746454      8.11e-08     00000 
   10    -310.0607746454      2.50e-08     00000 
   11    -310.0607746454      1.13e-08     00000 
   12    -310.0607746454      4.62e-09     00000 Convergence criterion met
write pseudocanon occs and virts to disk
write pseudocanon orbital energies to disk
Timing for Total SCF: 268.00s (wall), 1607.00s (cpu)
<S^2> of polarized wavefunction after polarization iterations 0.0000000000
relaxing scfmi constraint to allow all rotations in the entire AO span
Doing General SCFMI
 Exchange:     0.1500 Hartree-Fock + 1.0000 wB97M-V + LR-HF
 Correlation:  1.0000 wB97M-V
 Using Euler-Maclaurin-Lebedev (99,590) quadrature formula
 Nonlocal Correlation:  VV10 with C = 0.0100 and b = 6.00 and scale = 1.00000
 Grid used for NLC:  SG-1 standard quadrature
performing fock build at end of subrot_r(subrot) constructor so that all methods have access
<S^2> of polarized wavefunction before ct-allowed iterations 0.0000000000
Beginning iterations for the determination of the CT-Allowed wavefunction
Energy prior to optimization (guess energy) = -310.060774645445
Begin Timing: Total SCF Calculation
begin iterations for algorithm: DIIS         
the SCF tolerance is set to 1.00e-08
    1    -310.0607746454      8.01e-05     00000 
    2    -310.0614694899      1.00e-05     00000 
    3    -310.0614916689      2.63e-06     00000 
    4    -310.0614922757      2.03e-06     00000 
    5    -310.0614925566      2.81e-07     00000 
    6    -310.0614925642      9.55e-08     00000 
    7    -310.0614925655      2.25e-08     00000 
    8    -310.0614925655      4.80e-09     00000 Convergence criterion met
write pseudocanon occs and virts to disk
write pseudocanon orbital energies to disk
Timing for Total SCF: 172.00s (wall), 1036.19s (cpu)
<S^2> of ct_allowed wavefunction after ct-allowed iterations 0.0000000000

================================
        Results of EDA2         
================================
Basic EDA Quantities
--------------------
Fragment Energies (Ha):
1 -155.0296086405
2 -155.0293949574
--------------------
  E_prp (kJ/mol) = 0.0000
  E_frz (kJ/mol) = -3.5729
  E_pol (kJ/mol) = -1.0770
  E_vct (kJ/mol) = -1.8849
  E_int (kJ/mol) = -6.5349
--------------------


Decomposition of frozen interaction energy
--------------------
  --------------------
  Orthogonal Frozen Decomposition:
  --------------------
     E_elec   (ELEC)   (kJ/mol) = -21.4685
     E_pauli  (PAULI)  (kJ/mol) = 28.9296
     E_disp   (DISP)   (kJ/mol) = -11.0340
  --------------------
  Classical Frozen Decomposition:
  --------------------
     E_cls_elec  (CLS ELEC)  (kJ/mol) = -8.8439
     E_mod_pauli (MOD PAULI) (kJ/mol) = 14.9931 (FRZ - CLS ELEC - CLS DISP)
     E_cls_disp  (CLS DISP)  (kJ/mol) = -9.7221
  --------------------
--------------------

Simplified EDA Summary (kJ/mol)
--------------------
 PREPARATION      0.0000
 FROZEN           -3.5729 (ELEC + PAULI + DISP)
[ELEC + PAULI = 6.1492, DISP = -9.7221]
 POLARIZATION    -1.0770
 CHARGE TRANSFER -1.8849
 TOTAL           -6.5349     (PRP + FRZ + POL + CT)
--------------------
 
 --------------------------------------------------------------
 
                    Orbital Energies (a.u.)
 --------------------------------------------------------------
 
 Alpha MOs
 -- Occupied --
-19.3375 -19.3271 -10.3911 -10.3817 -10.3318 -10.3272  -1.1590  -1.1493
 -0.8783  -0.8670  -0.7384  -0.7313  -0.6374  -0.6101  -0.5846  -0.5590
 -0.5387  -0.5173  -0.4886  -0.4809  -0.4757  -0.4641  -0.4421  -0.4239
 -0.3845  -0.3765
 -- Virtual --
  0.0309   0.0437   0.0552   0.0602   0.0718   0.0778   0.0854   0.0948
  0.1074   0.1193   0.1199   0.1313   0.1427   0.1444   0.1535   0.1616
  0.1701   0.1744   0.1832   0.1908   0.2010   0.2039   0.2122   0.2190
  0.2296   0.2398   0.2439   0.2542   0.2578   0.2699   0.2766   0.2792
  0.2842   0.2867   0.2944   0.2954   0.3017   0.3065   0.3145   0.3171
  0.3230   0.3301   0.3345   0.3407   0.3429   0.3495   0.3537   0.3584
  0.3601   0.3620   0.3687   0.3733   0.3832   0.3920   0.3958   0.4000
  0.4036   0.4043   0.4121   0.4200   0.4295   0.4332   0.4440   0.4463
  0.4530   0.4568   0.4698   0.4719   0.4746   0.4783   0.4871   0.4903
  0.4950   0.5030   0.5116   0.5199   0.5226   0.5291   0.5408   0.5461
  0.5554   0.5662   0.5822   0.5883   0.5895   0.6066   0.6250   0.6298
  0.6426   0.6585   0.6634   0.6682   0.6856   0.6874   0.7031   0.7065
  0.7196   0.7307   0.7383   0.7444   0.7498   0.7539   0.7567   0.7589
  0.7618   0.7734   0.7794   0.7815   0.7924   0.8017   0.8071   0.8123
  0.8287   0.8393   0.8524   0.8616   0.8959   0.8996   0.9111   0.9330
  0.9418   0.9505   0.9719   0.9876   0.9922   1.0011   1.0125   1.0253
  1.0391   1.0504   1.0649   1.0799   1.0862   1.1209   1.1321   1.1485
  1.1566   1.1760   1.1872   1.1949   1.2064   1.2218   1.2404   1.2465
  1.2550   1.2610   1.2671   1.2751   1.2882   1.3006   1.3433   1.3464
  1.3521   1.3599   1.3665   1.3853   1.3920   1.3948   1.4168   1.4204
  1.4393   1.4631   1.4726   1.4912   1.5050   1.5174   1.5357   1.5573
  1.5711   1.6165   1.6219   1.6346   1.6525   1.6592   1.6801   1.6878
  1.6903   1.7048   1.7161   1.7275   1.7476   1.7662   1.7767   1.7919
  1.7975   1.8415   1.9399   1.9439   1.9622   1.9782   1.9903   2.0171
  2.0648   2.0774   2.1193   2.1213   2.1545   2.1847   2.2340   2.2645
  2.2657   2.2946   2.3534   2.3558   2.3800   2.4037   2.4406   2.4650
  2.4771   2.5233   2.6796   2.7125   2.7396   2.7524   2.7752   2.7969
  2.8376   2.8635   2.8699   2.8813   2.8996   2.9082   2.9100   2.9267
  2.9436   2.9519   2.9774   2.9791   3.0016   3.0074   3.0176   3.0421
  3.0445   3.0709   3.0809   3.0863   3.1020   3.1273   3.1574   3.1718
  3.1982   3.2049   3.2099   3.2256   3.2417   3.2576   3.2671   3.2786
  3.2828   3.2915   3.2944   3.3108   3.3194   3.3374   3.3634   3.3773
  3.4181   3.4224   3.4422   3.4656   3.4724   3.5099   3.5386   3.5481
  3.5627   3.5686   3.5893   3.5999   3.6035   3.6088   3.6423   3.6658
  3.6975   3.7034   3.7079   3.7407   3.7662   3.7683   3.7862   3.7905
  3.7942   3.8435   3.8616   3.8970   3.9043   3.9367   3.9892   3.9911
  3.9976   4.0227   4.0333   4.0597   4.0733   4.0784   4.0904   4.0954
  4.1136   4.1300   4.1461   4.1512   4.1668   4.1816   4.2015   4.2133
  4.2207   4.2294   4.2515   4.2650   4.2767   4.2850   4.2962   4.3091
  4.3136   4.3253   4.3680   4.3838   4.4126   4.4344   4.4507   4.4535
  4.4794   4.4854   4.4952   4.5296   4.5486   4.5587   4.5970   4.6114
  4.6539   4.6553   4.6910   4.7008   4.7180   4.7578   4.8153   4.8237
  4.8492   4.8656   4.9295   4.9421   4.9499   4.9653   4.9715   4.9997
  5.0244   5.0307   5.0384   5.0700   5.1116   5.1460   5.2134   5.2509
  5.2981   5.3005   5.3223   5.3375   5.4065   5.4135   5.4219   5.4298
  5.4476   5.4526   5.4555   5.4917   5.5097   5.5570   5.5712   5.5905
  5.6161   5.6349   5.6502   5.6746   5.7409   5.7491   5.7772   5.7915
  5.8245   5.8348   5.9004   5.9543   6.1118   6.1199   6.2577   6.3034
  6.6600   6.6755   6.8212   6.8325   6.8757   6.8959   6.9580   6.9823
  7.0661   7.0825   7.3660   7.3717   7.5482   7.5565   7.7733   7.7827
 23.7473  23.7757  24.0615  24.1199  44.7459  44.7936
 --------------------------------------------------------------
 
          Ground-State Mulliken Net Atomic Charges

     Atom                 Charge (a.u.)
  ----------------------------------------
      1 C                    -0.984629
      2 C                    -0.214540
      3 O                    -0.400681
      4 H                     0.138080
      5 H                     0.290880
      6 H                     0.239587
      7 H                     0.293217
      8 H                     0.262780
      9 H                     0.376344
     10 C                    -0.656737
     11 C                    -0.306024
     12 O                    -0.385150
     13 H                     0.122982
     14 H                     0.094536
     15 H                     0.293412
     16 H                     0.284238
     17 H                     0.263276
     18 H                     0.288429
  ----------------------------------------
  Sum of atomic charges =     0.000000

 -----------------------------------------------------------------
                    Cartesian Multipole Moments
 -----------------------------------------------------------------
    Charge (ESU x 10^10)
                -0.0000
    Dipole Moment (Debye)
         X       1.9731      Y      -0.6518      Z      -1.0362
       Tot       2.3220
    Quadrupole Moments (Debye-Ang)
        XX     -49.3109     XY       3.2149     YY     -35.2744
        XZ      -4.4701     YZ      -1.4927     ZZ     -41.4538
    Octopole Moments (Debye-Ang^2)
       XXX      48.9835    XXY     -10.0621    XYY      -5.6782
       YYY      10.2514    XXZ      -3.1356    XYZ      -6.6248
       YYZ      -4.4526    XZZ      -1.5259    YZZ       0.6916
       ZZZ       0.2653
    Hexadecapole Moments (Debye-Ang^3)
      XXXX   -1727.1881   XXXY      52.6432   XXYY    -244.8232
      XYYY      42.5581   YYYY    -171.4634   XXXZ     -21.3430
      XXYZ      -0.8023   XYYZ      -4.8638   YYYZ      -0.2081
      XXZZ    -276.2975   XYZZ       4.6108   YYZZ     -52.9263
      XZZZ       2.2525   YZZZ      -0.8128   ZZZZ    -115.1491
 -----------------------------------------------------------------
 Total job time:  1439.92s(wall), 5134.31s(cpu) 
 Sat Mar  1 04:24:01 2025

        *************************************************************
        *                                                           *
        *  Thank you very much for using Q-Chem.  Have a nice day.  *
        *                                                           *
        *************************************************************


