
Running Job 1 of 1 004_ethanol_dimer_31_almo.inp
qchem 004_ethanol_dimer_31_almo.inp_127828.0 /scratch/qchem127828/ 6
/home/kchung25/qchem/5.4.0/exe/qcprog.exe_s 004_ethanol_dimer_31_almo.inp_127828.0 /scratch/qchem127828/
                  Welcome to Q-Chem
     A Quantum Leap Into The Future Of Chemistry


 Q-Chem 5.4, Q-Chem, Inc., Pleasanton, CA (2021)

 E. Epifanovsky,  A. T. B. Gilbert,  Xintian Feng,  Joonho Lee,  Yuezhi Mao,  
 N. Mardirossian,  P. Pokhilko,  A. White,  M. Wormit,  M. P. Coons,  
 A. L. Dempwolff,  Zhengting Gan,  D. Hait,  P. R. Horn,  L. D. Jacobson,  
 I. Kaliman,  J. Kussmann,  A. W. Lange,  Ka Un Lao,  D. S. Levine,  Jie Liu,  
 S. C. McKenzie,  A. F. Morrison,  K. Nanda,  F. Plasser,  D. R. Rehn,  
 M. L. Vidal,  Zhi-Qiang You,  Ying Zhu,  B. Alam,  B. Albrecht,  
 A. Aldossary,  E. Alguire,  J. H. Andersen,  D. Barton,  K. Begam,  A. Behn,  
 Y. A. Bernard,  E. J. Berquist,  H. Burton,  A. Carreras,  K. Carter-Fenk,  
 Romit Chakraborty,  A. D. Chien,  K. D. Closser,  V. Cofer-Shabica,  
 S. Dasgupta,  Jia Deng,  M. de Wergifosse,  M. Diedenhofen,  Hainam Do,  
 S. Ehlert,  Po-Tung Fang,  S. Fatehi,  Qingguo Feng,  T. Friedhoff,  
 J. Gayvert,  Qinghui Ge,  G. Gidofalvi,  M. Goldey,  J. Gomes,  
 C. Gonzalez-Espinoza,  S. Gulania,  A. Gunina,  M. W. D. Hanson-Heine,  
 P. H. P. Harbach,  A. W. Hauser,  M. F. Herbst,  M. Hernandez Vera,  
 M. Hodecker,  Z. C. Holden,  S. Houck,  Xunkun Huang,  Kerwin Hui,  
 B. C. Huynh,  M. Ivanov,  Hyunjun Ji,  Hanjie Jiang,  B. Kaduk,  S. Kaehler,  
 K. Khistyaev,  Jaehoon Kim,  P. Klunzinger,  Z. Koczor-Benda,  
 Joong Hoon Koh,  D. Kosenkov,  L. Koulias,  T. Kowalczyk,  C. M. Krauter,  
 K. Kue,  A. Kunitsa,  T. Kus,  A. Landau,  K. V. Lawler,  D. Lefrancois,  
 S. Lehtola,  Rain Li,  Yi-Pei Li,  Jiashu Liang,  M. Liebenthal,  
 Hung-Hsuan Lin,  You-Sheng Lin,  Fenglai Liu,  Kuan-Yu Liu,  
 M. Loipersberger,  A. Luenser,  A. Manjanath,  P. Manohar,  E. Mansoor,  
 S. F. Manzer,  Shan-Ping Mao,  A. V. Marenich,  T. Markovich,  S. Mason,  
 S. A. Maurer,  P. F. McLaughlin,  M. F. S. J. Menger,  J.-M. Mewes,  
 S. A. Mewes,  P. Morgante,  J. W. Mullinax,  K. J. Oosterbaan,  G. Paran,  
 Alexander C. Paul,  Suranjan K. Paul,  F. Pavosevic,  Zheng Pei,  S. Prager,  
 E. I. Proynov,  E. Ramos,  B. Rana,  A. E. Rask,  A. Rettig,  R. M. Richard,  
 F. Rob,  E. Rossomme,  T. Scheele,  M. Scheurer,  M. Schneider,  
 N. Sergueev,  S. M. Sharada,  W. Skomorowski,  D. W. Small,  C. J. Stein,  
 Yu-Chuan Su,  E. J. Sundstrom,  Zhen Tao,  J. Thirman,  T. Tsuchimochi,  
 N. M. Tubman,  S. P. Veccham,  O. Vydrov,  J. Wenzel,  J. Witte,  A. Yamada,  
 Kun Yao,  S. Yeganeh,  S. R. Yost,  A. Zech,  Igor Ying Zhang,  Xing Zhang,  
 Yu Zhang,  D. Zuev,  A. Aspuru-Guzik,  A. T. Bell,  N. A. Besley,  
 K. B. Bravaya,  B. R. Brooks,  D. Casanova,  Jeng-Da Chai,  S. Coriani,  
 C. J. Cramer,  A. E. DePrince, III,  R. A. DiStasio Jr.,  A. Dreuw,  
 B. D. Dunietz,  T. R. Furlani,  W. A. Goddard III,  S. Grimme,  
 S. Hammes-Schiffer,  T. Head-Gordon,  W. J. Hehre,  Chao-Ping Hsu,  
 T.-C. Jagau,  Yousung Jung,  A. Klamt,  Jing Kong,  D. S. Lambrecht,  
 WanZhen Liang,  N. J. Mayhall,  C. W. McCurdy,  J. B. Neaton,  T. Neudecker,  
 C. Ochsenfeld,  J. A. Parkhill,  R. Peverati,  V. A. Rassolov,  Yihan Shao,  
 L. V. Slipchenko,  R. P. Steele,  J. E. Subotnik,  A. J. W. Thom,  
 A. Tkatchenko,  D. G. Truhlar,  T. Van Voorhis,  T. A. Wesolowski,  
 K. B. Whaley,  H. L. Woodcock III,  P. M. Zimmerman,  S. Faraji,  
 P. M. W. Gill,  M. Head-Gordon,  J. M. Herbert,  A. I. Krylov

 Additional authors since Version 5.4.0: 
 Chandrima Chakravarty,  L. Cunha,  R. Kang,  Yongbin Kim,  S. Kotaru,  
 Shaozhi Li,  Xiangyuan Li,  F. Matz,  A. Molle,  V. Parravicini,  
 Haisheng Ren,  Hengyuan Shen,  Yingli Su,  Hung-Yi Tsai,  C. Utku,  
 Fang Wang,  Jeff Yang,  F. Zeller

 Contributors to earlier versions of Q-Chem not listed above: 
 R. D. Adamson,  B. Austin,  R. Baer,  J. Baker,  G. J. O. Beran,  
 K. Brandhorst,  S. T. Brown,  E. F. C. Byrd,  Arup K. Chakraborty,  
 G. K. L. Chan,  Chun-Min Chang,  Yunqing Chen,  C.-L. Cheng,  
 Siu Hung Chien,  D. M. Chipman,  D. L. Crittenden,  H. Dachsel,  
 R. J. Doerksen,  A. D. Dutoi,  R. G. Edgar,  J. Fosso-Tande,  
 L. Fusti-Molnar,  D. Ghosh,  A. Ghysels,  A. Golubeva-Zadorozhnaya,  
 J. Gonthier,  M. S. Gordon,  S. R. Gwaltney,  G. Hawkins,  J. E. Herr,  
 A. Heyden,  S. Hirata,  E. G. Hohenstein,  G. Kedziora,  F. J. Keil,  
 C. Kelley,  Jihan Kim,  R. A. King,  R. Z. Khaliullin,  P. P. Korambath,  
 W. Kurlancheek,  A. Laurent,  A. M. Lee,  M. S. Lee,  S. V. Levchenko,  
 Ching Yeh Lin,  D. Liotard,  E. Livshits,  R. C. Lochan,  I. Lotan,  
 L. A. Martinez-Martinez,  P. E. Maslen,  N. Nair,  D. P. O'Neill,  
 D. Neuhauser,  E. Neuscamman,  C. M. Oana,  R. Olivares-Amaya,  R. Olson,  
 T. M. Perrine,  B. Peters,  P. A. Pieniazek,  A. Prociuk,  Y. M. Rhee,  
 J. Ritchie,  M. A. Rohrdanz,  E. Rosta,  N. J. Russ,  H. F. Schaefer III,  
 M. W. Schmidt,  N. E. Schultz,  S. Sharma,  N. Shenvi,  C. D. Sherrill,  
 A. C. Simmonett,  A. Sodt,  T. Stein,  D. Stuck,  K. S. Thanthiriwatte,  
 V. Vanovschi,  L. Vogt,  Tao Wang,  A. Warshel,  M. A. Watson,  
 C. F. Williams,  Q. Wu,  X. Xu,  Jun Yang,  W. Zhang,  Yan Zhao

   Please cite Q-Chem as follows:
  "Software for the frontiers of quantum chemistry:
   An overview of developments in the Q-Chem 5 package"
   J. Chem. Phys. 155, 084801 (2021)
   https://doi.org/10.1063/5.0055522 (open access)

 Q-Chem 5.4.2 for Intel X86 EM64T Linux

 Parts of Q-Chem use Armadillo 9.900.5 (Nocturnal Misbehaviour).
 http://arma.sourceforge.net/

 Q-Chem begins on Fri Feb 28 12:35:49 2025  

 Host: 
0

     Scratch files written to /scratch/qchem127828//
 Dec1321 |scratch|qcdevops|jenkins|workspace|build_RNUM 5684   
 Processing $rem in /home/kchung25/qchem/5.4.0/config/preferences:
 Processing $rem in /home/kchung25/.qchemrc:

 Q-Chem warning in module libgen/rem_setup.C, line 3079:

 Neither GIA nor STOLL is specified by user. Use STOLL as the default


 Checking the input file for inconsistencies... 	...done.

--------------------------------------------------------------
User input:
--------------------------------------------------------------
$molecule
0 1
--
0 1
C    1.635449   1.247536   0.209283
C    2.047727  -0.189239   0.362071
O    1.548480  -0.910909  -0.745314
H    1.802687  -1.831576  -0.659123
H    2.034333   1.850858   1.026500
H    0.546224   1.342934   0.213817
H    2.015073   1.650247  -0.732076
H    1.650247  -0.596450   1.304150
H    3.143129  -0.268001   0.414013
--
0 1
C   -1.590107  -1.070649   0.696464
C   -1.772602  -0.178365  -0.497818
O   -1.915449   1.148740  -0.028055
H   -1.998728   1.736540  -0.781331
H   -1.468912  -2.109922   0.386117
H   -2.449662  -1.003946   1.366223
H   -0.699281  -0.774381   1.255697
H   -2.661473  -0.484993  -1.067855
H   -0.900685  -0.269654  -1.159183
$end

$rem
JOBTYPE          eda
EDA2             1
METHOD           wB97M-V
BASIS            def2-TZVPPD
SYMMETRY         false
MEM_TOTAL        50000
MEM_STATIC       10000
THRESH           14
SCF_CONVERGENCE  8
XC_GRID          000099000590
NL_GRID          1
EDA_CLS_DISP     true
FD_MAT_VEC_PROD  FALSE
$end
--------------------------------------------------------------
 ----------------------------------------------------------------
             Standard Nuclear Orientation (Angstroms)
    I     Atom           X                Y                Z
 ----------------------------------------------------------------
    1      C       1.6354489648    -1.2475359587    -0.2092830494
    2      C       2.0477269554     0.1892390395    -0.3620710918
    3      O       1.5484799676     0.9109090652     0.7453138970
    4      H       1.8026869618     1.8315760643     0.6591228700
    5      H       2.0343329561    -1.8508579774    -1.0265000397
    6      H       0.5462239652    -1.3429339642    -0.2138170314
    7      H       2.0150729803    -1.6502469328     0.7320759554
    8      H       1.6502469399     0.5964500136    -1.3041500965
    9      H       3.1431289543     0.2680010437    -0.4140131095
   10      C      -1.5901070538     1.0706490128    -0.6964640622
   11      C      -1.7726020322     0.1783650422     0.4978179631
   12      O      -1.9154490323    -1.1487399704     0.0280549989
   13      H      -1.9987280186    -1.7365399517     0.7813310151
   14      H      -1.4689120546     2.1099220213    -0.3861170903
   15      H      -2.4496620630     1.0039459914    -1.3662230482
   16      H      -0.6992810603     0.7743810030    -1.2556970674
   17      H      -2.6614730256     0.4849930523     1.0678549680
   18      H      -0.9006850232     0.2696540634     1.1591829483
 ----------------------------------------------------------------
 Molecular Point Group                 C1    NOp =  1
 Largest Abelian Subgroup              C1    NOp =  1
 Nuclear Repulsion Energy =         258.01393013 hartrees
 There are       26 alpha and       26 beta electrons
 Requested basis set is def2-TZVPPD
 There are 164 shells and 432 basis functions

 Q-Chem warning in module libmdc/get_mega.C, line 171:

 Allowed MEM_STATIC has been capped at MEM_STATIC=8191.
 Reduce the value of MEM_STATIC to silence this warning.


 Total QAlloc Memory Limit  50000 MB
 Mega-Array Size      8007 MB
 MEM_STATIC part      8191 MB
 A cutoff of  1.0D-14 yielded  12655 shell pairs
 There are     87527 function pairs (    107800 Cartesian)
 Smallest overlap matrix eigenvalue = 5.20E-06

 Scale SEOQF with 1.000000e-01/1.000000e-01/1.000000e-01

 Standard Electronic Orientation quadrupole field applied
 Nucleus-field energy     =     0.0000000077 hartrees

 -----------------------------------------------------------------------
  General SCF calculation program by
  Eric Jon Sundstrom, Paul Horn, Yuezhi Mao, Dmitri Zuev, Alec White,
  David Stuck, Shaama M.S., Shane Yost, Joonho Lee, David Small,
  Daniel Levine, Susi Lehtola, Hugh Burton, Evgeny Epifanovsky,
  Bang C. Huynh
 -----------------------------------------------------------------------
================================================================
                 ALMO-EDA with the EDA2 driver                  
================================================================
 The second-generation ALMO-EDA (for DFT):                      
 P. R. Horn, Y. Mao and M. Head-Gordon, PCCP, 18, 23067 (2016)  
 Y. Mao et al. Annu. Rev. Phys. Chem. 72, 641 (2021)            
 Decomposition of the frozen energy:                            
 P. R. Horn, Y. Mao and M. Head-Gordon, JCP, 144, 114107 (2016) 
 FERF model for polarization:                                   
 P. R. Horn and M. Head-Gordon, JCP, 143, 114111 (2015)         
================================================================
 Using eda2 option set 1
 Option set summary: Frozen orbital wavefunction, initial wavefunction decomposition, and nDQ polarization.
--------------------------------
Printing EDA Options
--------------------------------
eda_child_super_basis      0
fragmo_guess_mode          0
child_mp                   1
child_mp_orders            232
cls_elec                   1
cls_disp                   1
scfmi_mode                 1
scfmi_occs                 0
scfmi_virts                0
frz_relax                  0
frz_relax_method           0
dc_pen_start               0
dc_pen_conv                0
dc_pen_increment           0
dc_pen_steps               0
dc_pen_thresh_factor       0
dc_pen_pre_newton_thresh   0
frz_ortho_decomp           1
frz_ortho_decomp_conv      6
plot_mo_ortho_frz          0
frgm_method                2
scfmi_freeze_ss            0
separate_rehyb             0
plot_diff_den              0
eda_nocv                   0
eda_vct_relax              1
disp_free_x                0
disp_free_c                0
eda_bsse                   0
eda_pct_a                  0
eda_covp                   0
--------------------------------
Attempting to make child job directory: /scratch/qchem127828//Frg1/
Attempting to make child job directory: /scratch/qchem127828//Frg2/
Creating input file /scratch/qchem127828/Frg1.input
using default PutDataFrgm: nothing
calling putenv with: QCSCRATCH=/scratch/qchem127828/ 
Spawning Job For Fragment 0
Done Job For Fragment 0
calling putenv with: QCSCRATCH=/scratch 
calling putenv with: QCTHREADS=6 
Creating input file /scratch/qchem127828/Frg2.input
using default PutDataFrgm: nothing
calling putenv with: QCSCRATCH=/scratch/qchem127828/ 
Spawning Job For Fragment 1
Done Job For Fragment 1
calling putenv with: QCSCRATCH=/scratch 
calling putenv with: QCTHREADS=6 
Doing General SCFMI
 Exchange:     0.1500 Hartree-Fock + 1.0000 wB97M-V + LR-HF
 Correlation:  1.0000 wB97M-V
 Using Euler-Maclaurin-Lebedev (99,590) quadrature formula
 Nonlocal Correlation:  VV10 with C = 0.0100 and b = 6.00 and scale = 1.00000
 Grid used for NLC:  SG-1 standard quadrature
performing fock build before subrot guess so that all methods have access
Printing subrot_rss_gen Method Specification:
Occupied Subspace Method is 0
Virtual Subspace Method is 0
Energy of the unrelaxed supersystem initial determinant -310.061287854956
write pseudocanon occs and virts to disk
write pseudocanon orbital energies to disk
Tolerance of ortho_decomp_scf: 1.00e-06
GDM subspace size: 20
Beginning the Orthogonal Decomposition of the Initial Supersystem Wavefunction
    1    -310.0291349425      6.83e-02     ortho_decomp Preconditoned Steepest Descent
    2    -310.0343530265      2.15e-03     ortho_decomp BFGS Step
    3    -310.0343781564      1.46e-04     ortho_decomp BFGS Step
    4    -310.0343781779      5.27e-06     ortho_decomp BFGS Step
    5    -310.0343781780      2.34e-07     ortho_decomp 00000 Convergence criterion met
 Hartree-Fock
 Hartree-Fock
 Hartree-Fock
 Exchange:     0.1500 Hartree-Fock + 1.0000 wB97M-V + LR-HF
 Correlation:  1.0000 wB97M-V
 Using Euler-Maclaurin-Lebedev (99,590) quadrature formula
 Nonlocal Correlation:  VV10 with C = 0.0100 and b = 6.00 and scale = 1.00000
 Grid used for NLC:  SG-1 standard quadrature
 Long-range K will be added via erf
 Coulomb attenuation parameter = 0.3 bohr**(-1)
 Nonlocal correlation = 2.036367912922e-01
Doing General SCFMI
 Exchange:     0.1500 Hartree-Fock + 1.0000 wB97M-V + LR-HF
 Correlation:  1.0000 wB97M-V
 Using Euler-Maclaurin-Lebedev (99,590) quadrature formula
 Nonlocal Correlation:  VV10 with C = 0.0100 and b = 6.00 and scale = 1.00000
 Grid used for NLC:  SG-1 standard quadrature
performing fock build at end of subrot_r(subrot) constructor so that all methods have access
<S^2> of initial wavefunction before polarization iterations 0.0000000000
Beginning iterations for the determination of the polarized wavefunction
Energy prior to optimization (guess energy) = -310.061287854956
Begin Timing: Total SCF Calculation
begin iterations for algorithm: DIIS         
the SCF tolerance is set to 1.00e-08
    1    -310.0612878550      1.56e-04     00000 
    2    -310.0620324006      5.74e-05     00000 
    3    -310.0620964215      3.68e-05     00000 
    4    -310.0621168662      1.03e-05     00000 
    5    -310.0621193329      4.09e-06     00000 
    6    -310.0621199214      1.59e-06     00000 
    7    -310.0621200386      5.52e-07     00000 
    8    -310.0621200542      1.85e-07     00000 
    9    -310.0621200551      9.35e-08     00000 
   10    -310.0621200552      4.37e-08     00000 
   11    -310.0621200553      2.02e-08     00000 
   12    -310.0621200553      9.32e-09     00000 Convergence criterion met
write pseudocanon occs and virts to disk
write pseudocanon orbital energies to disk
Timing for Total SCF: 299.00s (wall), 1790.91s (cpu)
<S^2> of polarized wavefunction after polarization iterations 0.0000000000
relaxing scfmi constraint to allow all rotations in the entire AO span
Doing General SCFMI
 Exchange:     0.1500 Hartree-Fock + 1.0000 wB97M-V + LR-HF
 Correlation:  1.0000 wB97M-V
 Using Euler-Maclaurin-Lebedev (99,590) quadrature formula
 Nonlocal Correlation:  VV10 with C = 0.0100 and b = 6.00 and scale = 1.00000
 Grid used for NLC:  SG-1 standard quadrature
performing fock build at end of subrot_r(subrot) constructor so that all methods have access
<S^2> of polarized wavefunction before ct-allowed iterations 0.0000000000
Beginning iterations for the determination of the CT-Allowed wavefunction
Energy prior to optimization (guess energy) = -310.062120055268
Begin Timing: Total SCF Calculation
begin iterations for algorithm: DIIS         
the SCF tolerance is set to 1.00e-08
    1    -310.0621200553      1.02e-04     00000 
    2    -310.0632881033      1.30e-05     00000 
    3    -310.0633253647      3.31e-06     00000 
    4    -310.0633262884      2.71e-06     00000 
    5    -310.0633267749      2.89e-07     00000 
    6    -310.0633267855      1.11e-07     00000 
    7    -310.0633267874      3.08e-08     00000 
    8    -310.0633267875      7.68e-09     00000 Convergence criterion met
write pseudocanon occs and virts to disk
write pseudocanon orbital energies to disk
Timing for Total SCF: 192.00s (wall), 1149.80s (cpu)
<S^2> of ct_allowed wavefunction after ct-allowed iterations 0.0000000000

================================
        Results of EDA2         
================================
Basic EDA Quantities
--------------------
Fragment Energies (Ha):
1 -155.0296041329
2 -155.0296310581
--------------------
  E_prp (kJ/mol) = 0.0000
  E_frz (kJ/mol) = -5.3893
  E_pol (kJ/mol) = -2.1850
  E_vct (kJ/mol) = -3.1683
  E_int (kJ/mol) = -10.7426
--------------------


Decomposition of frozen interaction energy
--------------------
  --------------------
  Orthogonal Frozen Decomposition:
  --------------------
     E_elec   (ELEC)   (kJ/mol) = -37.3887
     E_pauli  (PAULI)  (kJ/mol) = 50.1129
     E_disp   (DISP)   (kJ/mol) = -18.1135
  --------------------
  Classical Frozen Decomposition:
  --------------------
     E_cls_elec  (CLS ELEC)  (kJ/mol) = -15.0789
     E_mod_pauli (MOD PAULI) (kJ/mol) = 25.3977 (FRZ - CLS ELEC - CLS DISP)
     E_cls_disp  (CLS DISP)  (kJ/mol) = -15.7081
  --------------------
--------------------

Simplified EDA Summary (kJ/mol)
--------------------
 PREPARATION      0.0000
 FROZEN           -5.3893 (ELEC + PAULI + DISP)
[ELEC + PAULI = 10.3188, DISP = -15.7081]
 POLARIZATION    -2.1850
 CHARGE TRANSFER -3.1683
 TOTAL           -10.7426     (PRP + FRZ + POL + CT)
--------------------
 
 --------------------------------------------------------------
 
                    Orbital Energies (a.u.)
 --------------------------------------------------------------
 
 Alpha MOs
 -- Occupied --
-19.3332 -19.3264 -10.3857 -10.3760 -10.3221 -10.3216  -1.1541  -1.1467
 -0.8708  -0.8664  -0.7245  -0.7189  -0.6324  -0.6243  -0.5851  -0.5605
 -0.5117  -0.5060  -0.4801  -0.4779  -0.4694  -0.4554  -0.4384  -0.4273
 -0.3804  -0.3710
 -- Virtual --
  0.0325   0.0437   0.0596   0.0610   0.0788   0.0801   0.0888   0.0979
  0.1075   0.1274   0.1298   0.1371   0.1446   0.1551   0.1649   0.1684
  0.1765   0.1886   0.1966   0.2009   0.2078   0.2136   0.2155   0.2397
  0.2468   0.2511   0.2550   0.2616   0.2720   0.2761   0.2812   0.2901
  0.2906   0.2974   0.3017   0.3055   0.3153   0.3165   0.3242   0.3288
  0.3344   0.3370   0.3416   0.3440   0.3475   0.3516   0.3588   0.3598
  0.3656   0.3685   0.3722   0.3834   0.3854   0.3965   0.4029   0.4105
  0.4181   0.4212   0.4349   0.4367   0.4440   0.4472   0.4542   0.4594
  0.4673   0.4703   0.4733   0.4817   0.4861   0.4899   0.5021   0.5078
  0.5109   0.5258   0.5297   0.5435   0.5461   0.5570   0.5638   0.5666
  0.5743   0.5835   0.5987   0.6172   0.6259   0.6385   0.6403   0.6532
  0.6608   0.6640   0.6719   0.6815   0.6929   0.6984   0.7104   0.7210
  0.7229   0.7287   0.7452   0.7532   0.7589   0.7636   0.7683   0.7749
  0.7763   0.7890   0.7907   0.7977   0.8122   0.8251   0.8318   0.8336
  0.8510   0.8575   0.8718   0.8806   0.9052   0.9190   0.9326   0.9389
  0.9570   0.9681   0.9858   0.9956   1.0184   1.0278   1.0303   1.0527
  1.0547   1.0651   1.0864   1.1002   1.1200   1.1256   1.1539   1.1606
  1.1994   1.2111   1.2243   1.2352   1.2393   1.2411   1.2546   1.2626
  1.2771   1.2889   1.3067   1.3182   1.3305   1.3426   1.3539   1.3638
  1.3747   1.3886   1.3955   1.4049   1.4144   1.4327   1.4487   1.4606
  1.4706   1.4892   1.5037   1.5164   1.5190   1.5435   1.5547   1.5820
  1.5909   1.6350   1.6437   1.6691   1.6785   1.6841   1.6973   1.7076
  1.7149   1.7166   1.7419   1.7619   1.7769   1.7853   1.8049   1.8145
  1.8431   1.8657   1.9381   1.9717   1.9912   2.0114   2.0355   2.0434
  2.0765   2.0931   2.1252   2.1517   2.1692   2.1949   2.2682   2.2806
  2.2906   2.3186   2.3409   2.3764   2.4021   2.4349   2.4538   2.4976
  2.5329   2.5472   2.6936   2.7219   2.7392   2.7457   2.7678   2.8048
  2.8400   2.8839   2.8974   2.9008   2.9204   2.9299   2.9426   2.9652
  2.9686   2.9860   2.9895   3.0041   3.0099   3.0330   3.0401   3.0546
  3.0698   3.0873   3.0932   3.1095   3.1501   3.1579   3.1980   3.2062
  3.2117   3.2292   3.2454   3.2478   3.2599   3.2745   3.2833   3.2919
  3.2997   3.3120   3.3250   3.3306   3.3414   3.3605   3.3703   3.4393
  3.4452   3.4504   3.5062   3.5125   3.5366   3.5450   3.5636   3.5716
  3.5856   3.6019   3.6080   3.6095   3.6307   3.6362   3.6421   3.6886
  3.7074   3.7242   3.7370   3.7429   3.7813   3.7966   3.8156   3.8213
  3.8337   3.8479   3.9171   3.9294   3.9397   3.9469   4.0098   4.0105
  4.0194   4.0273   4.0400   4.0719   4.0871   4.0908   4.1047   4.1170
  4.1377   4.1413   4.1489   4.1654   4.1766   4.1820   4.2006   4.2282
  4.2410   4.2712   4.2803   4.2827   4.3094   4.3170   4.3348   4.3469
  4.3538   4.3570   4.3843   4.3986   4.4219   4.4603   4.4767   4.4899
  4.5069   4.5171   4.5284   4.5517   4.5761   4.5919   4.6089   4.6269
  4.6622   4.6709   4.6774   4.7121   4.7337   4.7488   4.8358   4.8420
  4.8632   4.8874   4.9452   4.9558   4.9588   4.9706   4.9783   4.9944
  5.0223   5.0308   5.0433   5.0597   5.1241   5.1572   5.2636   5.2786
  5.3068   5.3172   5.3316   5.3467   5.4220   5.4298   5.4428   5.4508
  5.4629   5.4692   5.4728   5.4869   5.5190   5.5399   5.5848   5.6057
  5.6468   5.6652   5.6738   5.7258   5.7605   5.7757   5.8203   5.8274
  5.8376   5.8737   5.9657   5.9715   6.1141   6.1244   6.2573   6.2737
  6.6861   6.6901   6.8383   6.8468   6.8802   6.8854   6.9659   6.9726
  7.0842   7.0929   7.3688   7.3959   7.5623   7.5751   7.7916   7.8039
 23.7709  23.7964  24.0828  24.1146  44.8061  44.8302
 --------------------------------------------------------------
 
          Ground-State Mulliken Net Atomic Charges

     Atom                 Charge (a.u.)
  ----------------------------------------
      1 C                    -0.746043
      2 C                    -0.336496
      3 O                    -0.366985
      4 H                     0.123045
      5 H                     0.314349
      6 H                     0.078312
      7 H                     0.270160
      8 H                     0.303231
      9 H                     0.375705
     10 C                    -0.871565
     11 C                    -0.254450
     12 O                    -0.417111
     13 H                     0.132055
     14 H                     0.264354
     15 H                     0.336962
     16 H                     0.129751
     17 H                     0.387735
     18 H                     0.276991
  ----------------------------------------
  Sum of atomic charges =     0.000000

 -----------------------------------------------------------------
                    Cartesian Multipole Moments
 -----------------------------------------------------------------
    Charge (ESU x 10^10)
                -0.0000
    Dipole Moment (Debye)
         X       0.8965      Y       1.0189      Z       0.4104
       Tot       1.4178
    Quadrupole Moments (Debye-Ang)
        XX     -39.0470     XY       1.3478     YY     -36.3157
        XZ      -4.6427     YZ      -2.3969     ZZ     -41.1206
    Octopole Moments (Debye-Ang^2)
       XXX       6.9951    XXY       5.3888    XYY       4.4805
       YYY       4.7179    XXZ       5.1751    XYZ       5.8476
       YYZ       8.5580    XZZ      -4.2591    YZZ      -3.1529
       ZZZ       3.1332
    Hexadecapole Moments (Debye-Ang^3)
      XXXX    -830.9058   XXXY      22.7867   XXYY    -171.1767
      XYYY      44.9514   YYYY    -262.8238   XXXZ     -12.0714
      XXYZ      -8.0843   XYYZ      -5.4034   YYYZ       1.9113
      XXZZ    -160.9358   XYZZ       7.3571   YYZZ     -67.7440
      XZZZ      -1.9783   YZZZ      -0.3507   ZZZZ    -143.1608
 -----------------------------------------------------------------
 Total job time:  1526.96s(wall), 5711.34s(cpu) 
 Fri Feb 28 13:01:16 2025

        *************************************************************
        *                                                           *
        *  Thank you very much for using Q-Chem.  Have a nice day.  *
        *                                                           *
        *************************************************************


