
Running Job 1 of 1 004_ethanol_dimer_26_almo.inp
qchem 004_ethanol_dimer_26_almo.inp_121843.0 /scratch/qchem121843/ 6
/home/kchung25/qchem/5.4.0/exe/qcprog.exe_s 004_ethanol_dimer_26_almo.inp_121843.0 /scratch/qchem121843/
                  Welcome to Q-Chem
     A Quantum Leap Into The Future Of Chemistry


 Q-Chem 5.4, Q-Chem, Inc., Pleasanton, CA (2021)

 E. Epifanovsky,  A. T. B. Gilbert,  Xintian Feng,  Joonho Lee,  Yuezhi Mao,  
 N. Mardirossian,  P. Pokhilko,  A. White,  M. Wormit,  M. P. Coons,  
 A. L. Dempwolff,  Zhengting Gan,  D. Hait,  P. R. Horn,  L. D. Jacobson,  
 I. Kaliman,  J. Kussmann,  A. W. Lange,  Ka Un Lao,  D. S. Levine,  Jie Liu,  
 S. C. McKenzie,  A. F. Morrison,  K. Nanda,  F. Plasser,  D. R. Rehn,  
 M. L. Vidal,  Zhi-Qiang You,  Ying Zhu,  B. Alam,  B. Albrecht,  
 A. Aldossary,  E. Alguire,  J. H. Andersen,  D. Barton,  K. Begam,  A. Behn,  
 Y. A. Bernard,  E. J. Berquist,  H. Burton,  A. Carreras,  K. Carter-Fenk,  
 Romit Chakraborty,  A. D. Chien,  K. D. Closser,  V. Cofer-Shabica,  
 S. Dasgupta,  Jia Deng,  M. de Wergifosse,  M. Diedenhofen,  Hainam Do,  
 S. Ehlert,  Po-Tung Fang,  S. Fatehi,  Qingguo Feng,  T. Friedhoff,  
 J. Gayvert,  Qinghui Ge,  G. Gidofalvi,  M. Goldey,  J. Gomes,  
 C. Gonzalez-Espinoza,  S. Gulania,  A. Gunina,  M. W. D. Hanson-Heine,  
 P. H. P. Harbach,  A. W. Hauser,  M. F. Herbst,  M. Hernandez Vera,  
 M. Hodecker,  Z. C. Holden,  S. Houck,  Xunkun Huang,  Kerwin Hui,  
 B. C. Huynh,  M. Ivanov,  Hyunjun Ji,  Hanjie Jiang,  B. Kaduk,  S. Kaehler,  
 K. Khistyaev,  Jaehoon Kim,  P. Klunzinger,  Z. Koczor-Benda,  
 Joong Hoon Koh,  D. Kosenkov,  L. Koulias,  T. Kowalczyk,  C. M. Krauter,  
 K. Kue,  A. Kunitsa,  T. Kus,  A. Landau,  K. V. Lawler,  D. Lefrancois,  
 S. Lehtola,  Rain Li,  Yi-Pei Li,  Jiashu Liang,  M. Liebenthal,  
 Hung-Hsuan Lin,  You-Sheng Lin,  Fenglai Liu,  Kuan-Yu Liu,  
 M. Loipersberger,  A. Luenser,  A. Manjanath,  P. Manohar,  E. Mansoor,  
 S. F. Manzer,  Shan-Ping Mao,  A. V. Marenich,  T. Markovich,  S. Mason,  
 S. A. Maurer,  P. F. McLaughlin,  M. F. S. J. Menger,  J.-M. Mewes,  
 S. A. Mewes,  P. Morgante,  J. W. Mullinax,  K. J. Oosterbaan,  G. Paran,  
 Alexander C. Paul,  Suranjan K. Paul,  F. Pavosevic,  Zheng Pei,  S. Prager,  
 E. I. Proynov,  E. Ramos,  B. Rana,  A. E. Rask,  A. Rettig,  R. M. Richard,  
 F. Rob,  E. Rossomme,  T. Scheele,  M. Scheurer,  M. Schneider,  
 N. Sergueev,  S. M. Sharada,  W. Skomorowski,  D. W. Small,  C. J. Stein,  
 Yu-Chuan Su,  E. J. Sundstrom,  Zhen Tao,  J. Thirman,  T. Tsuchimochi,  
 N. M. Tubman,  S. P. Veccham,  O. Vydrov,  J. Wenzel,  J. Witte,  A. Yamada,  
 Kun Yao,  S. Yeganeh,  S. R. Yost,  A. Zech,  Igor Ying Zhang,  Xing Zhang,  
 Yu Zhang,  D. Zuev,  A. Aspuru-Guzik,  A. T. Bell,  N. A. Besley,  
 K. B. Bravaya,  B. R. Brooks,  D. Casanova,  Jeng-Da Chai,  S. Coriani,  
 C. J. Cramer,  A. E. DePrince, III,  R. A. DiStasio Jr.,  A. Dreuw,  
 B. D. Dunietz,  T. R. Furlani,  W. A. Goddard III,  S. Grimme,  
 S. Hammes-Schiffer,  T. Head-Gordon,  W. J. Hehre,  Chao-Ping Hsu,  
 T.-C. Jagau,  Yousung Jung,  A. Klamt,  Jing Kong,  D. S. Lambrecht,  
 WanZhen Liang,  N. J. Mayhall,  C. W. McCurdy,  J. B. Neaton,  T. Neudecker,  
 C. Ochsenfeld,  J. A. Parkhill,  R. Peverati,  V. A. Rassolov,  Yihan Shao,  
 L. V. Slipchenko,  R. P. Steele,  J. E. Subotnik,  A. J. W. Thom,  
 A. Tkatchenko,  D. G. Truhlar,  T. Van Voorhis,  T. A. Wesolowski,  
 K. B. Whaley,  H. L. Woodcock III,  P. M. Zimmerman,  S. Faraji,  
 P. M. W. Gill,  M. Head-Gordon,  J. M. Herbert,  A. I. Krylov

 Additional authors since Version 5.4.0: 
 Chandrima Chakravarty,  L. Cunha,  R. Kang,  Yongbin Kim,  S. Kotaru,  
 Shaozhi Li,  Xiangyuan Li,  F. Matz,  A. Molle,  V. Parravicini,  
 Haisheng Ren,  Hengyuan Shen,  Yingli Su,  Hung-Yi Tsai,  C. Utku,  
 Fang Wang,  Jeff Yang,  F. Zeller

 Contributors to earlier versions of Q-Chem not listed above: 
 R. D. Adamson,  B. Austin,  R. Baer,  J. Baker,  G. J. O. Beran,  
 K. Brandhorst,  S. T. Brown,  E. F. C. Byrd,  Arup K. Chakraborty,  
 G. K. L. Chan,  Chun-Min Chang,  Yunqing Chen,  C.-L. Cheng,  
 Siu Hung Chien,  D. M. Chipman,  D. L. Crittenden,  H. Dachsel,  
 R. J. Doerksen,  A. D. Dutoi,  R. G. Edgar,  J. Fosso-Tande,  
 L. Fusti-Molnar,  D. Ghosh,  A. Ghysels,  A. Golubeva-Zadorozhnaya,  
 J. Gonthier,  M. S. Gordon,  S. R. Gwaltney,  G. Hawkins,  J. E. Herr,  
 A. Heyden,  S. Hirata,  E. G. Hohenstein,  G. Kedziora,  F. J. Keil,  
 C. Kelley,  Jihan Kim,  R. A. King,  R. Z. Khaliullin,  P. P. Korambath,  
 W. Kurlancheek,  A. Laurent,  A. M. Lee,  M. S. Lee,  S. V. Levchenko,  
 Ching Yeh Lin,  D. Liotard,  E. Livshits,  R. C. Lochan,  I. Lotan,  
 L. A. Martinez-Martinez,  P. E. Maslen,  N. Nair,  D. P. O'Neill,  
 D. Neuhauser,  E. Neuscamman,  C. M. Oana,  R. Olivares-Amaya,  R. Olson,  
 T. M. Perrine,  B. Peters,  P. A. Pieniazek,  A. Prociuk,  Y. M. Rhee,  
 J. Ritchie,  M. A. Rohrdanz,  E. Rosta,  N. J. Russ,  H. F. Schaefer III,  
 M. W. Schmidt,  N. E. Schultz,  S. Sharma,  N. Shenvi,  C. D. Sherrill,  
 A. C. Simmonett,  A. Sodt,  T. Stein,  D. Stuck,  K. S. Thanthiriwatte,  
 V. Vanovschi,  L. Vogt,  Tao Wang,  A. Warshel,  M. A. Watson,  
 C. F. Williams,  Q. Wu,  X. Xu,  Jun Yang,  W. Zhang,  Yan Zhao

   Please cite Q-Chem as follows:
  "Software for the frontiers of quantum chemistry:
   An overview of developments in the Q-Chem 5 package"
   J. Chem. Phys. 155, 084801 (2021)
   https://doi.org/10.1063/5.0055522 (open access)

 Q-Chem 5.4.2 for Intel X86 EM64T Linux

 Parts of Q-Chem use Armadillo 9.900.5 (Nocturnal Misbehaviour).
 http://arma.sourceforge.net/

 Q-Chem begins on Fri Feb 28 10:26:55 2025  

 Host: 
0

     Scratch files written to /scratch/qchem121843//
 Dec1321 |scratch|qcdevops|jenkins|workspace|build_RNUM 5684   
 Processing $rem in /home/kchung25/qchem/5.4.0/config/preferences:
 Processing $rem in /home/kchung25/.qchemrc:

 Q-Chem warning in module libgen/rem_setup.C, line 3079:

 Neither GIA nor STOLL is specified by user. Use STOLL as the default


 Checking the input file for inconsistencies... 	...done.

--------------------------------------------------------------
User input:
--------------------------------------------------------------
$molecule
0 1
--
0 1
C   -1.976023   0.746718   0.790972
C   -1.792710   0.038582  -0.526085
O   -1.227247  -1.248106  -0.370351
H   -1.796923  -1.759699   0.209561
H   -2.400634   1.742179   0.645312
H   -1.012510   0.856037   1.292757
H   -2.651909   0.189921   1.447987
H   -1.093704   0.597995  -1.152012
H   -2.746235  -0.021497  -1.070103
--
0 1
C    1.976026  -0.746717   0.790972
C    1.792708  -0.038583  -0.526087
O    1.227246   1.248105  -0.370352
H    1.796925   1.759702   0.209554
H    2.400642  -1.742175   0.645313
H    1.012514  -0.856039   1.292757
H    2.651910  -0.189913   1.447983
H    1.093696  -0.597994  -1.152008
H    2.746232   0.021493  -1.070106
$end

$rem
JOBTYPE          eda
EDA2             1
METHOD           wB97M-V
BASIS            def2-TZVPPD
SYMMETRY         false
MEM_TOTAL        50000
MEM_STATIC       10000
THRESH           14
SCF_CONVERGENCE  8
XC_GRID          000099000590
NL_GRID          1
EDA_CLS_DISP     true
FD_MAT_VEC_PROD  FALSE
$end
--------------------------------------------------------------
 ----------------------------------------------------------------
             Standard Nuclear Orientation (Angstroms)
    I     Atom           X                Y                Z
 ----------------------------------------------------------------
    1      C      -1.9760231722     0.7467177664     0.7909717923
    2      C      -1.7927100124     0.0385817263    -0.5260851639
    3      O      -1.2272468703    -1.2481062000    -0.3703510707
    4      H      -1.7969228439    -1.7596992398     0.2095609201
    5      H      -2.4006342807     1.7421787097     0.6453117210
    6      H      -1.0125102143     0.8560369031     1.2927568433
    7      H      -2.6519091451     0.1899207177     1.4479867790
    8      H      -1.0937040417     0.5979947791    -1.1520121493
    9      H      -2.7462349736    -0.0214974112    -1.0701032166
   10      C       1.9760260032    -0.7467167693     0.7909720923
   11      C       1.7927079967    -0.0385828525    -0.5260869515
   12      O       1.2272458365     1.2481050884    -0.3703520447
   13      H       1.7969247426     1.7597021825     0.2095539646
   14      H       2.4006421287    -1.7421747262     0.6453131636
   15      H       1.0125139869    -0.8560388590     1.2927570413
   16      H       2.6519098996    -0.1899126591     1.4479831056
   17      H       1.0936960989    -0.5979939639    -1.1520079660
   18      H       2.7462320213     0.0214932341    -1.0701058988
 ----------------------------------------------------------------
 Molecular Point Group                 C1    NOp =  1
 Largest Abelian Subgroup              C1    NOp =  1
 Nuclear Repulsion Energy =         260.86850783 hartrees
 There are       26 alpha and       26 beta electrons
 Requested basis set is def2-TZVPPD
 There are 164 shells and 432 basis functions

 Q-Chem warning in module libmdc/get_mega.C, line 171:

 Allowed MEM_STATIC has been capped at MEM_STATIC=8191.
 Reduce the value of MEM_STATIC to silence this warning.


 Total QAlloc Memory Limit  50000 MB
 Mega-Array Size      8007 MB
 MEM_STATIC part      8191 MB
 A cutoff of  1.0D-14 yielded  12653 shell pairs
 There are     87637 function pairs (    108023 Cartesian)
 Smallest overlap matrix eigenvalue = 9.03E-06

 Scale SEOQF with 1.000000e-01/1.000000e-01/1.000000e-01

 Standard Electronic Orientation quadrupole field applied
 Nucleus-field energy     =     0.0000000062 hartrees

 -----------------------------------------------------------------------
  General SCF calculation program by
  Eric Jon Sundstrom, Paul Horn, Yuezhi Mao, Dmitri Zuev, Alec White,
  David Stuck, Shaama M.S., Shane Yost, Joonho Lee, David Small,
  Daniel Levine, Susi Lehtola, Hugh Burton, Evgeny Epifanovsky,
  Bang C. Huynh
 -----------------------------------------------------------------------
================================================================
                 ALMO-EDA with the EDA2 driver                  
================================================================
 The second-generation ALMO-EDA (for DFT):                      
 P. R. Horn, Y. Mao and M. Head-Gordon, PCCP, 18, 23067 (2016)  
 Y. Mao et al. Annu. Rev. Phys. Chem. 72, 641 (2021)            
 Decomposition of the frozen energy:                            
 P. R. Horn, Y. Mao and M. Head-Gordon, JCP, 144, 114107 (2016) 
 FERF model for polarization:                                   
 P. R. Horn and M. Head-Gordon, JCP, 143, 114111 (2015)         
================================================================
 Using eda2 option set 1
 Option set summary: Frozen orbital wavefunction, initial wavefunction decomposition, and nDQ polarization.
--------------------------------
Printing EDA Options
--------------------------------
eda_child_super_basis      0
fragmo_guess_mode          0
child_mp                   1
child_mp_orders            232
cls_elec                   1
cls_disp                   1
scfmi_mode                 1
scfmi_occs                 0
scfmi_virts                0
frz_relax                  0
frz_relax_method           0
dc_pen_start               0
dc_pen_conv                0
dc_pen_increment           0
dc_pen_steps               0
dc_pen_thresh_factor       0
dc_pen_pre_newton_thresh   0
frz_ortho_decomp           1
frz_ortho_decomp_conv      6
plot_mo_ortho_frz          0
frgm_method                2
scfmi_freeze_ss            0
separate_rehyb             0
plot_diff_den              0
eda_nocv                   0
eda_vct_relax              1
disp_free_x                0
disp_free_c                0
eda_bsse                   0
eda_pct_a                  0
eda_covp                   0
--------------------------------
Attempting to make child job directory: /scratch/qchem121843//Frg1/
Attempting to make child job directory: /scratch/qchem121843//Frg2/
Creating input file /scratch/qchem121843/Frg1.input
using default PutDataFrgm: nothing
calling putenv with: QCSCRATCH=/scratch/qchem121843/ 
Spawning Job For Fragment 0
Done Job For Fragment 0
calling putenv with: QCSCRATCH=/scratch 
calling putenv with: QCTHREADS=6 
Creating input file /scratch/qchem121843/Frg2.input
using default PutDataFrgm: nothing
calling putenv with: QCSCRATCH=/scratch/qchem121843/ 
Spawning Job For Fragment 1
Done Job For Fragment 1
calling putenv with: QCSCRATCH=/scratch 
calling putenv with: QCTHREADS=6 
Doing General SCFMI
 Exchange:     0.1500 Hartree-Fock + 1.0000 wB97M-V + LR-HF
 Correlation:  1.0000 wB97M-V
 Using Euler-Maclaurin-Lebedev (99,590) quadrature formula
 Nonlocal Correlation:  VV10 with C = 0.0100 and b = 6.00 and scale = 1.00000
 Grid used for NLC:  SG-1 standard quadrature
performing fock build before subrot guess so that all methods have access
Printing subrot_rss_gen Method Specification:
Occupied Subspace Method is 0
Virtual Subspace Method is 0
Energy of the unrelaxed supersystem initial determinant -310.061938035716
write pseudocanon occs and virts to disk
write pseudocanon orbital energies to disk
Tolerance of ortho_decomp_scf: 1.00e-06
GDM subspace size: 20
Beginning the Orthogonal Decomposition of the Initial Supersystem Wavefunction
    1    -310.0283299149      7.84e-02     ortho_decomp Preconditoned Steepest Descent
    2    -310.0343819993      2.29e-03     ortho_decomp BFGS Step
    3    -310.0344097783      1.73e-04     ortho_decomp BFGS Step
    4    -310.0344098062      6.02e-06     ortho_decomp BFGS Step
    5    -310.0344098063      1.78e-07     ortho_decomp 00000 Convergence criterion met
 Hartree-Fock
 Hartree-Fock
 Hartree-Fock
 Exchange:     0.1500 Hartree-Fock + 1.0000 wB97M-V + LR-HF
 Correlation:  1.0000 wB97M-V
 Using Euler-Maclaurin-Lebedev (99,590) quadrature formula
 Nonlocal Correlation:  VV10 with C = 0.0100 and b = 6.00 and scale = 1.00000
 Grid used for NLC:  SG-1 standard quadrature
 Long-range K will be added via erf
 Coulomb attenuation parameter = 0.3 bohr**(-1)
 Nonlocal correlation = 2.034155789272e-01
Doing General SCFMI
 Exchange:     0.1500 Hartree-Fock + 1.0000 wB97M-V + LR-HF
 Correlation:  1.0000 wB97M-V
 Using Euler-Maclaurin-Lebedev (99,590) quadrature formula
 Nonlocal Correlation:  VV10 with C = 0.0100 and b = 6.00 and scale = 1.00000
 Grid used for NLC:  SG-1 standard quadrature
performing fock build at end of subrot_r(subrot) constructor so that all methods have access
<S^2> of initial wavefunction before polarization iterations 0.0000000000
Beginning iterations for the determination of the polarized wavefunction
Energy prior to optimization (guess energy) = -310.061938035716
Begin Timing: Total SCF Calculation
begin iterations for algorithm: DIIS         
the SCF tolerance is set to 1.00e-08
    1    -310.0619380357      1.74e-04     00000 
    2    -310.0627839150      7.19e-05     00000 
    3    -310.0628682512      3.77e-05     00000 
    4    -310.0628919866      1.23e-05     00000 
    5    -310.0628947102      4.76e-06     00000 
    6    -310.0628954316      1.92e-06     00000 
    7    -310.0628956119      7.15e-07     00000 
    8    -310.0628956373      2.49e-07     00000 
    9    -310.0628956393      9.14e-08     00000 
   10    -310.0628956394      4.22e-08     00000 
   11    -310.0628956394      1.73e-08     00000 
   12    -310.0628956394      4.80e-09     00000 Convergence criterion met
write pseudocanon occs and virts to disk
write pseudocanon orbital energies to disk
Timing for Total SCF: 300.00s (wall), 1798.81s (cpu)
<S^2> of polarized wavefunction after polarization iterations 0.0000000000
relaxing scfmi constraint to allow all rotations in the entire AO span
Doing General SCFMI
 Exchange:     0.1500 Hartree-Fock + 1.0000 wB97M-V + LR-HF
 Correlation:  1.0000 wB97M-V
 Using Euler-Maclaurin-Lebedev (99,590) quadrature formula
 Nonlocal Correlation:  VV10 with C = 0.0100 and b = 6.00 and scale = 1.00000
 Grid used for NLC:  SG-1 standard quadrature
performing fock build at end of subrot_r(subrot) constructor so that all methods have access
<S^2> of polarized wavefunction before ct-allowed iterations 0.0000000000
Beginning iterations for the determination of the CT-Allowed wavefunction
Energy prior to optimization (guess energy) = -310.062895639422
Begin Timing: Total SCF Calculation
begin iterations for algorithm: DIIS         
the SCF tolerance is set to 1.00e-08
    1    -310.0628956394      9.62e-05     00000 
    2    -310.0638749418      1.15e-05     00000 
    3    -310.0639035773      3.15e-06     00000 
    4    -310.0639043240      2.49e-06     00000 
    5    -310.0639047336      2.87e-07     00000 
    6    -310.0639047425      9.31e-08     00000 
    7    -310.0639047439      2.94e-08     00000 
    8    -310.0639047440      6.44e-09     00000 Convergence criterion met
write pseudocanon occs and virts to disk
write pseudocanon orbital energies to disk
Timing for Total SCF: 192.00s (wall), 1151.19s (cpu)
<S^2> of ct_allowed wavefunction after ct-allowed iterations 0.0000000000

================================
        Results of EDA2         
================================
Basic EDA Quantities
--------------------
Fragment Energies (Ha):
1 -155.0294276848
2 -155.0294276981
--------------------
  E_prp (kJ/mol) = 0.0000
  E_frz (kJ/mol) = -8.0936
  E_pol (kJ/mol) = -2.5142
  E_vct (kJ/mol) = -2.6494
  E_int (kJ/mol) = -13.2573
--------------------


Decomposition of frozen interaction energy
--------------------
  --------------------
  Orthogonal Frozen Decomposition:
  --------------------
     E_elec   (ELEC)   (kJ/mol) = -38.9461
     E_pauli  (PAULI)  (kJ/mol) = 49.5235
     E_disp   (DISP)   (kJ/mol) = -18.6709
  --------------------
  Classical Frozen Decomposition:
  --------------------
     E_cls_elec  (CLS ELEC)  (kJ/mol) = -16.3747
     E_mod_pauli (MOD PAULI) (kJ/mol) = 24.4014 (FRZ - CLS ELEC - CLS DISP)
     E_cls_disp  (CLS DISP)  (kJ/mol) = -16.1203
  --------------------
--------------------

Simplified EDA Summary (kJ/mol)
--------------------
 PREPARATION      0.0000
 FROZEN           -8.0936 (ELEC + PAULI + DISP)
[ELEC + PAULI = 8.0267, DISP = -16.1203]
 POLARIZATION    -2.5142
 CHARGE TRANSFER -2.6494
 TOTAL           -13.2573     (PRP + FRZ + POL + CT)
--------------------
 
 --------------------------------------------------------------
 
                    Orbital Energies (a.u.)
 --------------------------------------------------------------
 
 Alpha MOs
 -- Occupied --
-19.3275 -19.3275 -10.3764 -10.3764 -10.3243 -10.3243  -1.1490  -1.1469
 -0.8640  -0.8637  -0.7371  -0.7316  -0.6154  -0.6030  -0.5629  -0.5482
 -0.5398  -0.5370  -0.4808  -0.4756  -0.4683  -0.4616  -0.4246  -0.4172
 -0.3773  -0.3750
 -- Virtual --
  0.0356   0.0458   0.0582   0.0608   0.0783   0.0832   0.0907   0.0982
  0.1225   0.1241   0.1260   0.1320   0.1465   0.1580   0.1598   0.1662
  0.1839   0.1877   0.1878   0.2047   0.2057   0.2144   0.2149   0.2406
  0.2510   0.2555   0.2616   0.2635   0.2756   0.2795   0.2831   0.2925
  0.2949   0.2976   0.3035   0.3039   0.3098   0.3172   0.3197   0.3224
  0.3279   0.3377   0.3393   0.3409   0.3439   0.3479   0.3490   0.3665
  0.3706   0.3817   0.3839   0.3869   0.3983   0.3988   0.4031   0.4133
  0.4150   0.4242   0.4246   0.4408   0.4430   0.4470   0.4486   0.4638
  0.4653   0.4749   0.4766   0.4790   0.4837   0.4974   0.4995   0.5035
  0.5096   0.5148   0.5226   0.5406   0.5476   0.5587   0.5637   0.5710
  0.5863   0.6020   0.6023   0.6034   0.6193   0.6221   0.6261   0.6505
  0.6615   0.6645   0.6718   0.6846   0.6928   0.7002   0.7184   0.7211
  0.7340   0.7380   0.7424   0.7510   0.7571   0.7608   0.7635   0.7717
  0.7761   0.7800   0.7911   0.8011   0.8082   0.8184   0.8208   0.8371
  0.8471   0.8644   0.8646   0.8822   0.8990   0.8993   0.9189   0.9284
  0.9405   0.9425   0.9839   1.0049   1.0115   1.0322   1.0409   1.0638
  1.0687   1.0791   1.1026   1.1117   1.1330   1.1359   1.1485   1.1731
  1.1752   1.1896   1.2051   1.2190   1.2500   1.2506   1.2561   1.2863
  1.2938   1.2974   1.3208   1.3254   1.3285   1.3356   1.3519   1.3591
  1.3817   1.3850   1.4137   1.4202   1.4274   1.4348   1.4505   1.4510
  1.4760   1.4996   1.5185   1.5196   1.5249   1.5288   1.5414   1.5969
  1.6011   1.6076   1.6296   1.6369   1.6800   1.6924   1.7049   1.7072
  1.7155   1.7293   1.7357   1.7406   1.7617   1.7702   1.7933   1.8033
  1.8299   1.8489   1.9387   1.9564   1.9757   1.9957   2.0523   2.0558
  2.0983   2.1047   2.1298   2.1597   2.1820   2.2257   2.2516   2.2699
  2.2873   2.3136   2.3772   2.3793   2.4014   2.4211   2.4566   2.4930
  2.5001   2.5178   2.7065   2.7079   2.7576   2.7834   2.8169   2.8323
  2.8423   2.8855   2.8874   2.8992   2.9144   2.9159   2.9413   2.9416
  2.9605   2.9651   2.9846   3.0003   3.0100   3.0444   3.0480   3.0541
  3.0710   3.0718   3.0828   3.0943   3.1285   3.1651   3.1725   3.1845
  3.2194   3.2215   3.2467   3.2591   3.2674   3.2827   3.2872   3.2948
  3.3062   3.3299   3.3338   3.3404   3.3608   3.3641   3.3810   3.3922
  3.4307   3.4428   3.4684   3.4871   3.4925   3.5177   3.5408   3.5759
  3.5929   3.6065   3.6166   3.6219   3.6449   3.6568   3.7033   3.7139
  3.7146   3.7345   3.7429   3.7614   3.7729   3.7833   3.8005   3.8155
  3.8240   3.8470   3.8736   3.8781   3.9239   3.9276   4.0017   4.0151
  4.0258   4.0297   4.0449   4.0467   4.0831   4.1053   4.1114   4.1254
  4.1324   4.1527   4.1535   4.1721   4.1922   4.1930   4.2318   4.2435
  4.2641   4.2658   4.2771   4.2824   4.3074   4.3091   4.3139   4.3315
  4.3398   4.3601   4.4029   4.4134   4.4348   4.4367   4.4671   4.4897
  4.4942   4.5148   4.5163   4.5236   4.5409   4.5520   4.6234   4.6338
  4.6940   4.6978   4.7112   4.7256   4.7519   4.7778   4.8195   4.8206
  4.8425   4.8513   4.9479   4.9558   4.9799   4.9893   5.0073   5.0136
  5.0498   5.0529   5.0749   5.0818   5.1640   5.1781   5.2353   5.2443
  5.3143   5.3198   5.3562   5.3665   5.4242   5.4325   5.4461   5.4490
  5.4565   5.4669   5.4911   5.5026   5.5245   5.5295   5.6078   5.6078
  5.6222   5.6441   5.6851   5.6962   5.7467   5.7468   5.7551   5.7863
  5.8236   5.8240   5.9105   5.9142   6.1175   6.1180   6.2906   6.3120
  6.6653   6.6946   6.8403   6.8510   6.8980   6.9051   6.9912   7.0123
  7.0953   7.1077   7.3878   7.3880   7.5489   7.5777   7.8108   7.8229
 23.7518  23.8543  24.0634  24.0683  44.7794  44.7987
 --------------------------------------------------------------
 
          Ground-State Mulliken Net Atomic Charges

     Atom                 Charge (a.u.)
  ----------------------------------------
      1 C                    -0.938511
      2 C                    -0.181203
      3 O                    -0.360380
      4 H                     0.112870
      5 H                     0.288511
      6 H                     0.235693
      7 H                     0.311300
      8 H                     0.180864
      9 H                     0.350856
     10 C                    -0.938512
     11 C                    -0.181202
     12 O                    -0.360379
     13 H                     0.112870
     14 H                     0.288512
     15 H                     0.235693
     16 H                     0.311299
     17 H                     0.180863
     18 H                     0.350856
  ----------------------------------------
  Sum of atomic charges =     0.000000

 -----------------------------------------------------------------
                    Cartesian Multipole Moments
 -----------------------------------------------------------------
    Charge (ESU x 10^10)
                -0.0000
    Dipole Moment (Debye)
         X       0.0000      Y       0.0000      Z       1.3985
       Tot       1.3985
    Quadrupole Moments (Debye-Ang)
        XX     -33.6661     XY       2.2548     YY     -39.6989
        XZ      -0.0000     YZ      -0.0000     ZZ     -41.7030
    Octopole Moments (Debye-Ang^2)
       XXX       0.0001    XXY       0.0001    XYY       0.0001
       YYY       0.0001    XXZ       1.7273    XYZ       6.9833
       YYZ       6.0575    XZZ      -0.0001    YZZ      -0.0000
       ZZZ      -3.7260
    Hexadecapole Moments (Debye-Ang^3)
      XXXX    -793.0471   XXXY      40.5713   XXYY    -154.2402
      XYYY      29.1550   YYYY    -223.8356   XXXZ      -0.0001
      XXYZ      -0.0000   XYYZ      -0.0001   YYYZ      -0.0001
      XXZZ    -167.5647   XYZZ       5.8251   YYZZ     -74.4530
      XZZZ      -0.0000   YZZZ      -0.0000   ZZZZ    -178.8749
 -----------------------------------------------------------------
 Total job time:  1549.01s(wall), 5733.21s(cpu) 
 Fri Feb 28 10:52:44 2025

        *************************************************************
        *                                                           *
        *  Thank you very much for using Q-Chem.  Have a nice day.  *
        *                                                           *
        *************************************************************


