
Running Job 1 of 1 004_ethanol_dimer_72_almo.inp
qchem 004_ethanol_dimer_72_almo.inp_174853.0 /scratch/qchem174853/ 6
/home/kchung25/qchem/5.4.0/exe/qcprog.exe_s 004_ethanol_dimer_72_almo.inp_174853.0 /scratch/qchem174853/
                  Welcome to Q-Chem
     A Quantum Leap Into The Future Of Chemistry


 Q-Chem 5.4, Q-Chem, Inc., Pleasanton, CA (2021)

 E. Epifanovsky,  A. T. B. Gilbert,  Xintian Feng,  Joonho Lee,  Yuezhi Mao,  
 N. Mardirossian,  P. Pokhilko,  A. White,  M. Wormit,  M. P. Coons,  
 A. L. Dempwolff,  Zhengting Gan,  D. Hait,  P. R. Horn,  L. D. Jacobson,  
 I. Kaliman,  J. Kussmann,  A. W. Lange,  Ka Un Lao,  D. S. Levine,  Jie Liu,  
 S. C. McKenzie,  A. F. Morrison,  K. Nanda,  F. Plasser,  D. R. Rehn,  
 M. L. Vidal,  Zhi-Qiang You,  Ying Zhu,  B. Alam,  B. Albrecht,  
 A. Aldossary,  E. Alguire,  J. H. Andersen,  D. Barton,  K. Begam,  A. Behn,  
 Y. A. Bernard,  E. J. Berquist,  H. Burton,  A. Carreras,  K. Carter-Fenk,  
 Romit Chakraborty,  A. D. Chien,  K. D. Closser,  V. Cofer-Shabica,  
 S. Dasgupta,  Jia Deng,  M. de Wergifosse,  M. Diedenhofen,  Hainam Do,  
 S. Ehlert,  Po-Tung Fang,  S. Fatehi,  Qingguo Feng,  T. Friedhoff,  
 J. Gayvert,  Qinghui Ge,  G. Gidofalvi,  M. Goldey,  J. Gomes,  
 C. Gonzalez-Espinoza,  S. Gulania,  A. Gunina,  M. W. D. Hanson-Heine,  
 P. H. P. Harbach,  A. W. Hauser,  M. F. Herbst,  M. Hernandez Vera,  
 M. Hodecker,  Z. C. Holden,  S. Houck,  Xunkun Huang,  Kerwin Hui,  
 B. C. Huynh,  M. Ivanov,  Hyunjun Ji,  Hanjie Jiang,  B. Kaduk,  S. Kaehler,  
 K. Khistyaev,  Jaehoon Kim,  P. Klunzinger,  Z. Koczor-Benda,  
 Joong Hoon Koh,  D. Kosenkov,  L. Koulias,  T. Kowalczyk,  C. M. Krauter,  
 K. Kue,  A. Kunitsa,  T. Kus,  A. Landau,  K. V. Lawler,  D. Lefrancois,  
 S. Lehtola,  Rain Li,  Yi-Pei Li,  Jiashu Liang,  M. Liebenthal,  
 Hung-Hsuan Lin,  You-Sheng Lin,  Fenglai Liu,  Kuan-Yu Liu,  
 M. Loipersberger,  A. Luenser,  A. Manjanath,  P. Manohar,  E. Mansoor,  
 S. F. Manzer,  Shan-Ping Mao,  A. V. Marenich,  T. Markovich,  S. Mason,  
 S. A. Maurer,  P. F. McLaughlin,  M. F. S. J. Menger,  J.-M. Mewes,  
 S. A. Mewes,  P. Morgante,  J. W. Mullinax,  K. J. Oosterbaan,  G. Paran,  
 Alexander C. Paul,  Suranjan K. Paul,  F. Pavosevic,  Zheng Pei,  S. Prager,  
 E. I. Proynov,  E. Ramos,  B. Rana,  A. E. Rask,  A. Rettig,  R. M. Richard,  
 F. Rob,  E. Rossomme,  T. Scheele,  M. Scheurer,  M. Schneider,  
 N. Sergueev,  S. M. Sharada,  W. Skomorowski,  D. W. Small,  C. J. Stein,  
 Yu-Chuan Su,  E. J. Sundstrom,  Zhen Tao,  J. Thirman,  T. Tsuchimochi,  
 N. M. Tubman,  S. P. Veccham,  O. Vydrov,  J. Wenzel,  J. Witte,  A. Yamada,  
 Kun Yao,  S. Yeganeh,  S. R. Yost,  A. Zech,  Igor Ying Zhang,  Xing Zhang,  
 Yu Zhang,  D. Zuev,  A. Aspuru-Guzik,  A. T. Bell,  N. A. Besley,  
 K. B. Bravaya,  B. R. Brooks,  D. Casanova,  Jeng-Da Chai,  S. Coriani,  
 C. J. Cramer,  A. E. DePrince, III,  R. A. DiStasio Jr.,  A. Dreuw,  
 B. D. Dunietz,  T. R. Furlani,  W. A. Goddard III,  S. Grimme,  
 S. Hammes-Schiffer,  T. Head-Gordon,  W. J. Hehre,  Chao-Ping Hsu,  
 T.-C. Jagau,  Yousung Jung,  A. Klamt,  Jing Kong,  D. S. Lambrecht,  
 WanZhen Liang,  N. J. Mayhall,  C. W. McCurdy,  J. B. Neaton,  T. Neudecker,  
 C. Ochsenfeld,  J. A. Parkhill,  R. Peverati,  V. A. Rassolov,  Yihan Shao,  
 L. V. Slipchenko,  R. P. Steele,  J. E. Subotnik,  A. J. W. Thom,  
 A. Tkatchenko,  D. G. Truhlar,  T. Van Voorhis,  T. A. Wesolowski,  
 K. B. Whaley,  H. L. Woodcock III,  P. M. Zimmerman,  S. Faraji,  
 P. M. W. Gill,  M. Head-Gordon,  J. M. Herbert,  A. I. Krylov

 Additional authors since Version 5.4.0: 
 Chandrima Chakravarty,  L. Cunha,  R. Kang,  Yongbin Kim,  S. Kotaru,  
 Shaozhi Li,  Xiangyuan Li,  F. Matz,  A. Molle,  V. Parravicini,  
 Haisheng Ren,  Hengyuan Shen,  Yingli Su,  Hung-Yi Tsai,  C. Utku,  
 Fang Wang,  Jeff Yang,  F. Zeller

 Contributors to earlier versions of Q-Chem not listed above: 
 R. D. Adamson,  B. Austin,  R. Baer,  J. Baker,  G. J. O. Beran,  
 K. Brandhorst,  S. T. Brown,  E. F. C. Byrd,  Arup K. Chakraborty,  
 G. K. L. Chan,  Chun-Min Chang,  Yunqing Chen,  C.-L. Cheng,  
 Siu Hung Chien,  D. M. Chipman,  D. L. Crittenden,  H. Dachsel,  
 R. J. Doerksen,  A. D. Dutoi,  R. G. Edgar,  J. Fosso-Tande,  
 L. Fusti-Molnar,  D. Ghosh,  A. Ghysels,  A. Golubeva-Zadorozhnaya,  
 J. Gonthier,  M. S. Gordon,  S. R. Gwaltney,  G. Hawkins,  J. E. Herr,  
 A. Heyden,  S. Hirata,  E. G. Hohenstein,  G. Kedziora,  F. J. Keil,  
 C. Kelley,  Jihan Kim,  R. A. King,  R. Z. Khaliullin,  P. P. Korambath,  
 W. Kurlancheek,  A. Laurent,  A. M. Lee,  M. S. Lee,  S. V. Levchenko,  
 Ching Yeh Lin,  D. Liotard,  E. Livshits,  R. C. Lochan,  I. Lotan,  
 L. A. Martinez-Martinez,  P. E. Maslen,  N. Nair,  D. P. O'Neill,  
 D. Neuhauser,  E. Neuscamman,  C. M. Oana,  R. Olivares-Amaya,  R. Olson,  
 T. M. Perrine,  B. Peters,  P. A. Pieniazek,  A. Prociuk,  Y. M. Rhee,  
 J. Ritchie,  M. A. Rohrdanz,  E. Rosta,  N. J. Russ,  H. F. Schaefer III,  
 M. W. Schmidt,  N. E. Schultz,  S. Sharma,  N. Shenvi,  C. D. Sherrill,  
 A. C. Simmonett,  A. Sodt,  T. Stein,  D. Stuck,  K. S. Thanthiriwatte,  
 V. Vanovschi,  L. Vogt,  Tao Wang,  A. Warshel,  M. A. Watson,  
 C. F. Williams,  Q. Wu,  X. Xu,  Jun Yang,  W. Zhang,  Yan Zhao

   Please cite Q-Chem as follows:
  "Software for the frontiers of quantum chemistry:
   An overview of developments in the Q-Chem 5 package"
   J. Chem. Phys. 155, 084801 (2021)
   https://doi.org/10.1063/5.0055522 (open access)

 Q-Chem 5.4.2 for Intel X86 EM64T Linux

 Parts of Q-Chem use Armadillo 9.900.5 (Nocturnal Misbehaviour).
 http://arma.sourceforge.net/

 Q-Chem begins on Sat Mar  1 05:38:19 2025  

 Host: 
0

     Scratch files written to /scratch/qchem174853//
 Dec1321 |scratch|qcdevops|jenkins|workspace|build_RNUM 5684   
 Processing $rem in /home/kchung25/qchem/5.4.0/config/preferences:
 Processing $rem in /home/kchung25/.qchemrc:

 Q-Chem warning in module libgen/rem_setup.C, line 3079:

 Neither GIA nor STOLL is specified by user. Use STOLL as the default


 Checking the input file for inconsistencies... 	...done.

--------------------------------------------------------------
User input:
--------------------------------------------------------------
$molecule
0 1
--
0 1
C    1.408102  -0.652268   0.024288
C    2.907861  -0.561872   0.018229
O    3.256630   0.800470  -0.079127
H    4.212007   0.881490  -0.080575
H    1.075837  -1.689148   0.097709
H    0.998612  -0.221592  -0.892111
H    0.998884  -0.097528   0.871496
H    3.315863  -1.135134  -0.826967
H    3.315333  -1.009035   0.936547
--
0 1
C   -1.971704   1.243959   0.058721
C   -2.162530  -0.251124   0.106251
O   -3.509689  -0.631859  -0.050231
H   -3.833955  -0.258651  -0.873672
H   -0.925121   1.514103   0.216607
H   -2.576813   1.733320   0.824279
H   -2.271704   1.643484  -0.914933
H   -1.851260  -0.644740   1.077857
H   -1.523581  -0.737624  -0.646302
$end

$rem
JOBTYPE          eda
EDA2             1
METHOD           wB97M-V
BASIS            def2-TZVPPD
SYMMETRY         false
MEM_TOTAL        50000
MEM_STATIC       10000
THRESH           14
SCF_CONVERGENCE  8
XC_GRID          000099000590
NL_GRID          1
EDA_CLS_DISP     true
FD_MAT_VEC_PROD  FALSE
$end
--------------------------------------------------------------
 ----------------------------------------------------------------
             Standard Nuclear Orientation (Angstroms)
    I     Atom           X                Y                Z
 ----------------------------------------------------------------
    1      C       1.4081019614    -0.6522679771     0.0242878485
    2      C       2.9078609559    -0.5618718917     0.0182287776
    3      O       3.2566298738     0.8004701267    -0.0791272591
    4      H       4.2120068691     0.8814901811    -0.0805753046
    5      H       1.0758370239    -1.6891479949     0.0977088795
    6      H       0.9986118944    -0.2215920142    -0.8921111391
    7      H       0.9988839690    -0.0975279876     0.8714958590
    8      H       3.3158629495    -1.1351338812    -0.8269672326
    9      H       3.3153330240    -1.0090348546     0.9365467655
   10      C      -1.9717041451     1.2439588308     0.0587209764
   11      C      -2.1625300577    -0.2511241793     0.1062510078
   12      O      -3.5096890432    -0.6318592585    -0.0502309240
   13      H      -3.8339551027    -0.2586512894    -0.8736719146
   14      H      -0.9251211532     1.5141028928     0.2166069239
   15      H      -2.5768131375     1.7333198079     0.8242789971
   16      H      -2.2717042130     1.6434837990    -0.9149330157
   17      H      -1.8512599902    -0.6447401469     1.0778569993
   18      H      -1.5235810648    -0.7376241543    -0.6463020145
 ----------------------------------------------------------------
 Molecular Point Group                 C1    NOp =  1
 Largest Abelian Subgroup              C1    NOp =  1
 Nuclear Repulsion Energy =         236.21320151 hartrees
 There are       26 alpha and       26 beta electrons
 Requested basis set is def2-TZVPPD
 There are 164 shells and 432 basis functions

 Q-Chem warning in module libmdc/get_mega.C, line 171:

 Allowed MEM_STATIC has been capped at MEM_STATIC=8191.
 Reduce the value of MEM_STATIC to silence this warning.


 Total QAlloc Memory Limit  50000 MB
 Mega-Array Size      8007 MB
 MEM_STATIC part      8191 MB
 A cutoff of  1.0D-14 yielded  11930 shell pairs
 There are     81250 function pairs (     99436 Cartesian)
 Smallest overlap matrix eigenvalue = 8.93E-06

 Scale SEOQF with 1.000000e-01/1.000000e-01/1.000000e-01

 Standard Electronic Orientation quadrupole field applied
 Nucleus-field energy     =     0.0000000152 hartrees

 -----------------------------------------------------------------------
  General SCF calculation program by
  Eric Jon Sundstrom, Paul Horn, Yuezhi Mao, Dmitri Zuev, Alec White,
  David Stuck, Shaama M.S., Shane Yost, Joonho Lee, David Small,
  Daniel Levine, Susi Lehtola, Hugh Burton, Evgeny Epifanovsky,
  Bang C. Huynh
 -----------------------------------------------------------------------
================================================================
                 ALMO-EDA with the EDA2 driver                  
================================================================
 The second-generation ALMO-EDA (for DFT):                      
 P. R. Horn, Y. Mao and M. Head-Gordon, PCCP, 18, 23067 (2016)  
 Y. Mao et al. Annu. Rev. Phys. Chem. 72, 641 (2021)            
 Decomposition of the frozen energy:                            
 P. R. Horn, Y. Mao and M. Head-Gordon, JCP, 144, 114107 (2016) 
 FERF model for polarization:                                   
 P. R. Horn and M. Head-Gordon, JCP, 143, 114111 (2015)         
================================================================
 Using eda2 option set 1
 Option set summary: Frozen orbital wavefunction, initial wavefunction decomposition, and nDQ polarization.
--------------------------------
Printing EDA Options
--------------------------------
eda_child_super_basis      0
fragmo_guess_mode          0
child_mp                   1
child_mp_orders            232
cls_elec                   1
cls_disp                   1
scfmi_mode                 1
scfmi_occs                 0
scfmi_virts                0
frz_relax                  0
frz_relax_method           0
dc_pen_start               0
dc_pen_conv                0
dc_pen_increment           0
dc_pen_steps               0
dc_pen_thresh_factor       0
dc_pen_pre_newton_thresh   0
frz_ortho_decomp           1
frz_ortho_decomp_conv      6
plot_mo_ortho_frz          0
frgm_method                2
scfmi_freeze_ss            0
separate_rehyb             0
plot_diff_den              0
eda_nocv                   0
eda_vct_relax              1
disp_free_x                0
disp_free_c                0
eda_bsse                   0
eda_pct_a                  0
eda_covp                   0
--------------------------------
Attempting to make child job directory: /scratch/qchem174853//Frg1/
Attempting to make child job directory: /scratch/qchem174853//Frg2/
Creating input file /scratch/qchem174853/Frg1.input
using default PutDataFrgm: nothing
calling putenv with: QCSCRATCH=/scratch/qchem174853/ 
Spawning Job For Fragment 0
Done Job For Fragment 0
calling putenv with: QCSCRATCH=/scratch 
calling putenv with: QCTHREADS=6 
Creating input file /scratch/qchem174853/Frg2.input
using default PutDataFrgm: nothing
calling putenv with: QCSCRATCH=/scratch/qchem174853/ 
Spawning Job For Fragment 1
Done Job For Fragment 1
calling putenv with: QCSCRATCH=/scratch 
calling putenv with: QCTHREADS=6 
Doing General SCFMI
 Exchange:     0.1500 Hartree-Fock + 1.0000 wB97M-V + LR-HF
 Correlation:  1.0000 wB97M-V
 Using Euler-Maclaurin-Lebedev (99,590) quadrature formula
 Nonlocal Correlation:  VV10 with C = 0.0100 and b = 6.00 and scale = 1.00000
 Grid used for NLC:  SG-1 standard quadrature
performing fock build before subrot guess so that all methods have access
Printing subrot_rss_gen Method Specification:
Occupied Subspace Method is 0
Virtual Subspace Method is 0
Energy of the unrelaxed supersystem initial determinant -310.060083389912
write pseudocanon occs and virts to disk
write pseudocanon orbital energies to disk
Tolerance of ortho_decomp_scf: 1.00e-06
GDM subspace size: 20
Beginning the Orthogonal Decomposition of the Initial Supersystem Wavefunction
    1    -310.0501927978      2.77e-02     ortho_decomp Preconditoned Steepest Descent
    2    -310.0512280211      7.46e-04     ortho_decomp BFGS Step
    3    -310.0512311668      4.68e-05     ortho_decomp BFGS Step
    4    -310.0512311716      2.15e-06     ortho_decomp BFGS Step
    5    -310.0512311717      8.38e-08     ortho_decomp 00000 Convergence criterion met
 Hartree-Fock
 Hartree-Fock
 Hartree-Fock
 Exchange:     0.1500 Hartree-Fock + 1.0000 wB97M-V + LR-HF
 Correlation:  1.0000 wB97M-V
 Using Euler-Maclaurin-Lebedev (99,590) quadrature formula
 Nonlocal Correlation:  VV10 with C = 0.0100 and b = 6.00 and scale = 1.00000
 Grid used for NLC:  SG-1 standard quadrature
 Long-range K will be added via erf
 Coulomb attenuation parameter = 0.3 bohr**(-1)
 Nonlocal correlation = 2.054051628686e-01
Doing General SCFMI
 Exchange:     0.1500 Hartree-Fock + 1.0000 wB97M-V + LR-HF
 Correlation:  1.0000 wB97M-V
 Using Euler-Maclaurin-Lebedev (99,590) quadrature formula
 Nonlocal Correlation:  VV10 with C = 0.0100 and b = 6.00 and scale = 1.00000
 Grid used for NLC:  SG-1 standard quadrature
performing fock build at end of subrot_r(subrot) constructor so that all methods have access
<S^2> of initial wavefunction before polarization iterations 0.0000000000
Beginning iterations for the determination of the polarized wavefunction
Energy prior to optimization (guess energy) = -310.060083389912
Begin Timing: Total SCF Calculation
begin iterations for algorithm: DIIS         
the SCF tolerance is set to 1.00e-08
    1    -310.0600833899      6.69e-05     00000 
    2    -310.0602137139      2.39e-05     00000 
    3    -310.0602240526      1.19e-05     00000 
    4    -310.0602266908      3.76e-06     00000 
    5    -310.0602269668      1.96e-06     00000 
    6    -310.0602270327      7.40e-07     00000 
    7    -310.0602270418      1.72e-07     00000 
    8    -310.0602270422      5.40e-08     00000 
    9    -310.0602270423      2.27e-08     00000 
   10    -310.0602270423      8.11e-09     00000 Convergence criterion met
write pseudocanon occs and virts to disk
write pseudocanon orbital energies to disk
Timing for Total SCF: 212.00s (wall), 1273.53s (cpu)
<S^2> of polarized wavefunction after polarization iterations 0.0000000000
relaxing scfmi constraint to allow all rotations in the entire AO span
Doing General SCFMI
 Exchange:     0.1500 Hartree-Fock + 1.0000 wB97M-V + LR-HF
 Correlation:  1.0000 wB97M-V
 Using Euler-Maclaurin-Lebedev (99,590) quadrature formula
 Nonlocal Correlation:  VV10 with C = 0.0100 and b = 6.00 and scale = 1.00000
 Grid used for NLC:  SG-1 standard quadrature
performing fock build at end of subrot_r(subrot) constructor so that all methods have access
<S^2> of polarized wavefunction before ct-allowed iterations 0.0000000000
Beginning iterations for the determination of the CT-Allowed wavefunction
Energy prior to optimization (guess energy) = -310.060227042273
Begin Timing: Total SCF Calculation
begin iterations for algorithm: DIIS         
the SCF tolerance is set to 1.00e-08
    1    -310.0602270423      6.17e-05     00000 
    2    -310.0605460404      5.97e-06     00000 
    3    -310.0605533466      1.32e-06     00000 
    4    -310.0605535396      7.23e-07     00000 
    5    -310.0605535890      9.50e-08     00000 
    6    -310.0605535899      4.05e-08     00000 
    7    -310.0605535900      1.59e-08     00000 
    8    -310.0605535901      2.10e-09     00000 Convergence criterion met
write pseudocanon occs and virts to disk
write pseudocanon orbital energies to disk
Timing for Total SCF: 165.00s (wall), 992.33s (cpu)
<S^2> of ct_allowed wavefunction after ct-allowed iterations 0.0000000000

================================
        Results of EDA2         
================================
Basic EDA Quantities
--------------------
Fragment Energies (Ha):
1 -155.0295699369
2 -155.0293909859
--------------------
  E_prp (kJ/mol) = 0.0000
  E_frz (kJ/mol) = -2.9471
  E_pol (kJ/mol) = -0.3772
  E_vct (kJ/mol) = -0.8574
  E_int (kJ/mol) = -4.1816
--------------------


Decomposition of frozen interaction energy
--------------------
  --------------------
  Orthogonal Frozen Decomposition:
  --------------------
     E_elec   (ELEC)   (kJ/mol) = -10.1400
     E_pauli  (PAULI)  (kJ/mol) = 15.3598
     E_disp   (DISP)   (kJ/mol) = -8.1669
  --------------------
  Classical Frozen Decomposition:
  --------------------
     E_cls_elec  (CLS ELEC)  (kJ/mol) = -3.4742
     E_mod_pauli (MOD PAULI) (kJ/mol) = 7.8864 (FRZ - CLS ELEC - CLS DISP)
     E_cls_disp  (CLS DISP)  (kJ/mol) = -7.3593
  --------------------
--------------------

Simplified EDA Summary (kJ/mol)
--------------------
 PREPARATION      0.0000
 FROZEN           -2.9471 (ELEC + PAULI + DISP)
[ELEC + PAULI = 4.4122, DISP = -7.3593]
 POLARIZATION    -0.3772
 CHARGE TRANSFER -0.8574
 TOTAL           -4.1816     (PRP + FRZ + POL + CT)
--------------------
 
 --------------------------------------------------------------
 
                    Orbital Energies (a.u.)
 --------------------------------------------------------------
 
 Alpha MOs
 -- Occupied --
-19.3345 -19.3284 -10.3896 -10.3834 -10.3319 -10.3298  -1.1565  -1.1508
 -0.8777  -0.8686  -0.7401  -0.7303  -0.6356  -0.6114  -0.5803  -0.5615
 -0.5435  -0.5149  -0.4900  -0.4807  -0.4715  -0.4694  -0.4400  -0.4255
 -0.3822  -0.3776
 -- Virtual --
  0.0322   0.0406   0.0575   0.0621   0.0719   0.0755   0.0844   0.0985
  0.1099   0.1151   0.1260   0.1282   0.1317   0.1455   0.1490   0.1572
  0.1719   0.1775   0.1874   0.1888   0.1977   0.2145   0.2171   0.2312
  0.2367   0.2381   0.2403   0.2425   0.2496   0.2572   0.2603   0.2737
  0.2808   0.2901   0.2966   0.3000   0.3098   0.3110   0.3180   0.3192
  0.3275   0.3301   0.3330   0.3393   0.3441   0.3491   0.3518   0.3539
  0.3603   0.3659   0.3702   0.3779   0.3843   0.3901   0.3958   0.3967
  0.4015   0.4041   0.4071   0.4195   0.4248   0.4327   0.4452   0.4498
  0.4518   0.4621   0.4683   0.4698   0.4730   0.4755   0.4815   0.4968
  0.4991   0.5089   0.5184   0.5299   0.5344   0.5448   0.5475   0.5585
  0.5699   0.5761   0.5836   0.5925   0.5953   0.6117   0.6209   0.6270
  0.6329   0.6383   0.6570   0.6592   0.6675   0.6742   0.6831   0.6961
  0.7019   0.7105   0.7188   0.7280   0.7353   0.7434   0.7546   0.7613
  0.7641   0.7690   0.7740   0.7924   0.7977   0.8019   0.8110   0.8193
  0.8383   0.8390   0.8433   0.8519   0.8586   0.8755   0.8810   0.9153
  0.9378   0.9540   0.9610   0.9651   0.9738   0.9962   1.0072   1.0302
  1.0431   1.0502   1.0557   1.0934   1.0980   1.1168   1.1382   1.1478
  1.1575   1.1610   1.1778   1.2039   1.2096   1.2260   1.2419   1.2473
  1.2550   1.2664   1.2706   1.2773   1.2973   1.3075   1.3126   1.3229
  1.3383   1.3423   1.3640   1.3698   1.3847   1.3916   1.4061   1.4156
  1.4246   1.4341   1.4588   1.4628   1.4923   1.4960   1.5231   1.5505
  1.5697   1.6123   1.6324   1.6404   1.6466   1.6642   1.6695   1.6732
  1.6834   1.6926   1.7036   1.7049   1.7304   1.7536   1.7687   1.8017
  1.8124   1.8213   1.9241   1.9407   1.9663   1.9776   2.0029   2.0169
  2.0692   2.0767   2.0919   2.1123   2.1692   2.1745   2.2115   2.2335
  2.2606   2.2713   2.3296   2.3548   2.3945   2.4024   2.4059   2.4405
  2.4900   2.5171   2.6762   2.7018   2.7331   2.7478   2.8013   2.8231
  2.8305   2.8529   2.8618   2.8672   2.8791   2.8981   2.9124   2.9255
  2.9393   2.9447   2.9674   2.9758   2.9862   2.9895   3.0160   3.0424
  3.0566   3.0618   3.0699   3.0861   3.1053   3.1469   3.1575   3.1738
  3.1928   3.2028   3.2074   3.2144   3.2324   3.2385   3.2504   3.2526
  3.2742   3.2879   3.2923   3.2988   3.3152   3.3242   3.3409   3.3602
  3.4111   3.4216   3.4361   3.4538   3.4821   3.5123   3.5240   3.5488
  3.5538   3.5695   3.5823   3.5920   3.6063   3.6117   3.6335   3.6571
  3.6655   3.7010   3.7286   3.7348   3.7423   3.7553   3.7649   3.7863
  3.8073   3.8235   3.8489   3.9031   3.9047   3.9445   3.9742   3.9955
  4.0055   4.0189   4.0339   4.0491   4.0511   4.0688   4.0885   4.1058
  4.1216   4.1260   4.1454   4.1523   4.1619   4.1710   4.1780   4.1957
  4.2134   4.2208   4.2270   4.2542   4.2559   4.2742   4.2943   4.3026
  4.3145   4.3247   4.3437   4.3754   4.3874   4.4188   4.4455   4.4569
  4.4805   4.4864   4.4966   4.5138   4.5441   4.5565   4.5993   4.6453
  4.6635   4.6851   4.6862   4.6933   4.7030   4.7374   4.8041   4.8142
  4.8498   4.8664   4.9281   4.9435   4.9452   4.9501   4.9777   4.9919
  5.0078   5.0367   5.0611   5.0863   5.0872   5.1385   5.2117   5.2479
  5.2913   5.2978   5.3172   5.3368   5.4023   5.4141   5.4165   5.4249
  5.4368   5.4467   5.4655   5.4795   5.5102   5.5198   5.5498   5.5838
  5.6090   5.6289   5.6619   5.6677   5.7425   5.7513   5.7674   5.7928
  5.8214   5.8234   5.9044   5.9544   6.1136   6.1194   6.2414   6.3020
  6.6586   6.6743   6.8123   6.8190   6.8777   6.8953   6.9413   6.9783
  7.0356   7.0724   7.3566   7.3776   7.5510   7.5591   7.7710   7.8086
 23.7376  23.7711  24.0511  24.1510  44.7730  44.7980
 --------------------------------------------------------------
 
          Ground-State Mulliken Net Atomic Charges

     Atom                 Charge (a.u.)
  ----------------------------------------
      1 C                    -0.814609
      2 C                    -0.423200
      3 O                    -0.360280
      4 H                     0.121053
      5 H                     0.343943
      6 H                     0.282309
      7 H                     0.224432
      8 H                     0.310501
      9 H                     0.311313
     10 C                    -0.949825
     11 C                    -0.031172
     12 O                    -0.419642
     13 H                     0.134791
     14 H                     0.256105
     15 H                     0.297687
     16 H                     0.273882
     17 H                     0.236174
     18 H                     0.206538
  ----------------------------------------
  Sum of atomic charges =     0.000000

 -----------------------------------------------------------------
                    Cartesian Multipole Moments
 -----------------------------------------------------------------
    Charge (ESU x 10^10)
                 0.0000
    Dipole Moment (Debye)
         X       2.0464      Y      -0.1482      Z      -0.8919
       Tot       2.2372
    Quadrupole Moments (Debye-Ang)
        XX     -36.9968     XY      -6.3117     YY     -43.0563
        XZ       4.7790     YZ       0.1560     ZZ     -39.2758
    Octopole Moments (Debye-Ang^2)
       XXX      76.0033    XXY      15.6448    XYY       3.5778
       YYY       0.0081    XXZ     -20.1000    XYZ      -0.4102
       YYZ       0.2503    XZZ      -6.9237    YZZ      -0.5846
       ZZZ      -1.8876
    Hexadecapole Moments (Debye-Ang^3)
      XXXX   -1484.5441   XXXY      -5.2916   XXYY    -340.8617
      XYYY      12.7806   YYYY    -228.1641   XXXZ      82.1701
      XXYZ       3.3127   XYYZ      -1.2042   YYYZ      -0.3494
      XXZZ    -279.3796   XYZZ       3.4090   YYZZ     -49.7986
      XZZZ       7.3257   YZZZ      -0.2387   ZZZZ     -72.4327
 -----------------------------------------------------------------
 Total job time:  1360.49s(wall), 4667.83s(cpu) 
 Sat Mar  1 06:00:59 2025

        *************************************************************
        *                                                           *
        *  Thank you very much for using Q-Chem.  Have a nice day.  *
        *                                                           *
        *************************************************************


