
Running Job 1 of 1 004_ethanol_dimer_25_almo.inp
qchem 004_ethanol_dimer_25_almo.inp_120595.0 /scratch/qchem120595/ 6
/home/kchung25/qchem/5.4.0/exe/qcprog.exe_s 004_ethanol_dimer_25_almo.inp_120595.0 /scratch/qchem120595/
                  Welcome to Q-Chem
     A Quantum Leap Into The Future Of Chemistry


 Q-Chem 5.4, Q-Chem, Inc., Pleasanton, CA (2021)

 E. Epifanovsky,  A. T. B. Gilbert,  Xintian Feng,  Joonho Lee,  Yuezhi Mao,  
 N. Mardirossian,  P. Pokhilko,  A. White,  M. Wormit,  M. P. Coons,  
 A. L. Dempwolff,  Zhengting Gan,  D. Hait,  P. R. Horn,  L. D. Jacobson,  
 I. Kaliman,  J. Kussmann,  A. W. Lange,  Ka Un Lao,  D. S. Levine,  Jie Liu,  
 S. C. McKenzie,  A. F. Morrison,  K. Nanda,  F. Plasser,  D. R. Rehn,  
 M. L. Vidal,  Zhi-Qiang You,  Ying Zhu,  B. Alam,  B. Albrecht,  
 A. Aldossary,  E. Alguire,  J. H. Andersen,  D. Barton,  K. Begam,  A. Behn,  
 Y. A. Bernard,  E. J. Berquist,  H. Burton,  A. Carreras,  K. Carter-Fenk,  
 Romit Chakraborty,  A. D. Chien,  K. D. Closser,  V. Cofer-Shabica,  
 S. Dasgupta,  Jia Deng,  M. de Wergifosse,  M. Diedenhofen,  Hainam Do,  
 S. Ehlert,  Po-Tung Fang,  S. Fatehi,  Qingguo Feng,  T. Friedhoff,  
 J. Gayvert,  Qinghui Ge,  G. Gidofalvi,  M. Goldey,  J. Gomes,  
 C. Gonzalez-Espinoza,  S. Gulania,  A. Gunina,  M. W. D. Hanson-Heine,  
 P. H. P. Harbach,  A. W. Hauser,  M. F. Herbst,  M. Hernandez Vera,  
 M. Hodecker,  Z. C. Holden,  S. Houck,  Xunkun Huang,  Kerwin Hui,  
 B. C. Huynh,  M. Ivanov,  Hyunjun Ji,  Hanjie Jiang,  B. Kaduk,  S. Kaehler,  
 K. Khistyaev,  Jaehoon Kim,  P. Klunzinger,  Z. Koczor-Benda,  
 Joong Hoon Koh,  D. Kosenkov,  L. Koulias,  T. Kowalczyk,  C. M. Krauter,  
 K. Kue,  A. Kunitsa,  T. Kus,  A. Landau,  K. V. Lawler,  D. Lefrancois,  
 S. Lehtola,  Rain Li,  Yi-Pei Li,  Jiashu Liang,  M. Liebenthal,  
 Hung-Hsuan Lin,  You-Sheng Lin,  Fenglai Liu,  Kuan-Yu Liu,  
 M. Loipersberger,  A. Luenser,  A. Manjanath,  P. Manohar,  E. Mansoor,  
 S. F. Manzer,  Shan-Ping Mao,  A. V. Marenich,  T. Markovich,  S. Mason,  
 S. A. Maurer,  P. F. McLaughlin,  M. F. S. J. Menger,  J.-M. Mewes,  
 S. A. Mewes,  P. Morgante,  J. W. Mullinax,  K. J. Oosterbaan,  G. Paran,  
 Alexander C. Paul,  Suranjan K. Paul,  F. Pavosevic,  Zheng Pei,  S. Prager,  
 E. I. Proynov,  E. Ramos,  B. Rana,  A. E. Rask,  A. Rettig,  R. M. Richard,  
 F. Rob,  E. Rossomme,  T. Scheele,  M. Scheurer,  M. Schneider,  
 N. Sergueev,  S. M. Sharada,  W. Skomorowski,  D. W. Small,  C. J. Stein,  
 Yu-Chuan Su,  E. J. Sundstrom,  Zhen Tao,  J. Thirman,  T. Tsuchimochi,  
 N. M. Tubman,  S. P. Veccham,  O. Vydrov,  J. Wenzel,  J. Witte,  A. Yamada,  
 Kun Yao,  S. Yeganeh,  S. R. Yost,  A. Zech,  Igor Ying Zhang,  Xing Zhang,  
 Yu Zhang,  D. Zuev,  A. Aspuru-Guzik,  A. T. Bell,  N. A. Besley,  
 K. B. Bravaya,  B. R. Brooks,  D. Casanova,  Jeng-Da Chai,  S. Coriani,  
 C. J. Cramer,  A. E. DePrince, III,  R. A. DiStasio Jr.,  A. Dreuw,  
 B. D. Dunietz,  T. R. Furlani,  W. A. Goddard III,  S. Grimme,  
 S. Hammes-Schiffer,  T. Head-Gordon,  W. J. Hehre,  Chao-Ping Hsu,  
 T.-C. Jagau,  Yousung Jung,  A. Klamt,  Jing Kong,  D. S. Lambrecht,  
 WanZhen Liang,  N. J. Mayhall,  C. W. McCurdy,  J. B. Neaton,  T. Neudecker,  
 C. Ochsenfeld,  J. A. Parkhill,  R. Peverati,  V. A. Rassolov,  Yihan Shao,  
 L. V. Slipchenko,  R. P. Steele,  J. E. Subotnik,  A. J. W. Thom,  
 A. Tkatchenko,  D. G. Truhlar,  T. Van Voorhis,  T. A. Wesolowski,  
 K. B. Whaley,  H. L. Woodcock III,  P. M. Zimmerman,  S. Faraji,  
 P. M. W. Gill,  M. Head-Gordon,  J. M. Herbert,  A. I. Krylov

 Additional authors since Version 5.4.0: 
 Chandrima Chakravarty,  L. Cunha,  R. Kang,  Yongbin Kim,  S. Kotaru,  
 Shaozhi Li,  Xiangyuan Li,  F. Matz,  A. Molle,  V. Parravicini,  
 Haisheng Ren,  Hengyuan Shen,  Yingli Su,  Hung-Yi Tsai,  C. Utku,  
 Fang Wang,  Jeff Yang,  F. Zeller

 Contributors to earlier versions of Q-Chem not listed above: 
 R. D. Adamson,  B. Austin,  R. Baer,  J. Baker,  G. J. O. Beran,  
 K. Brandhorst,  S. T. Brown,  E. F. C. Byrd,  Arup K. Chakraborty,  
 G. K. L. Chan,  Chun-Min Chang,  Yunqing Chen,  C.-L. Cheng,  
 Siu Hung Chien,  D. M. Chipman,  D. L. Crittenden,  H. Dachsel,  
 R. J. Doerksen,  A. D. Dutoi,  R. G. Edgar,  J. Fosso-Tande,  
 L. Fusti-Molnar,  D. Ghosh,  A. Ghysels,  A. Golubeva-Zadorozhnaya,  
 J. Gonthier,  M. S. Gordon,  S. R. Gwaltney,  G. Hawkins,  J. E. Herr,  
 A. Heyden,  S. Hirata,  E. G. Hohenstein,  G. Kedziora,  F. J. Keil,  
 C. Kelley,  Jihan Kim,  R. A. King,  R. Z. Khaliullin,  P. P. Korambath,  
 W. Kurlancheek,  A. Laurent,  A. M. Lee,  M. S. Lee,  S. V. Levchenko,  
 Ching Yeh Lin,  D. Liotard,  E. Livshits,  R. C. Lochan,  I. Lotan,  
 L. A. Martinez-Martinez,  P. E. Maslen,  N. Nair,  D. P. O'Neill,  
 D. Neuhauser,  E. Neuscamman,  C. M. Oana,  R. Olivares-Amaya,  R. Olson,  
 T. M. Perrine,  B. Peters,  P. A. Pieniazek,  A. Prociuk,  Y. M. Rhee,  
 J. Ritchie,  M. A. Rohrdanz,  E. Rosta,  N. J. Russ,  H. F. Schaefer III,  
 M. W. Schmidt,  N. E. Schultz,  S. Sharma,  N. Shenvi,  C. D. Sherrill,  
 A. C. Simmonett,  A. Sodt,  T. Stein,  D. Stuck,  K. S. Thanthiriwatte,  
 V. Vanovschi,  L. Vogt,  Tao Wang,  A. Warshel,  M. A. Watson,  
 C. F. Williams,  Q. Wu,  X. Xu,  Jun Yang,  W. Zhang,  Yan Zhao

   Please cite Q-Chem as follows:
  "Software for the frontiers of quantum chemistry:
   An overview of developments in the Q-Chem 5 package"
   J. Chem. Phys. 155, 084801 (2021)
   https://doi.org/10.1063/5.0055522 (open access)

 Q-Chem 5.4.2 for Intel X86 EM64T Linux

 Parts of Q-Chem use Armadillo 9.900.5 (Nocturnal Misbehaviour).
 http://arma.sourceforge.net/

 Q-Chem begins on Fri Feb 28 10:00:01 2025  

 Host: 
0

     Scratch files written to /scratch/qchem120595//
 Dec1321 |scratch|qcdevops|jenkins|workspace|build_RNUM 5684   
 Processing $rem in /home/kchung25/qchem/5.4.0/config/preferences:
 Processing $rem in /home/kchung25/.qchemrc:

 Q-Chem warning in module libgen/rem_setup.C, line 3079:

 Neither GIA nor STOLL is specified by user. Use STOLL as the default


 Checking the input file for inconsistencies... 	...done.

--------------------------------------------------------------
User input:
--------------------------------------------------------------
$molecule
0 1
--
0 1
C   -1.686448   1.341898  -0.042337
C   -2.262488  -0.026468   0.247001
O   -1.639995  -1.048471  -0.482759
H   -0.760677  -1.193099  -0.101764
H   -2.245446   2.125623   0.474367
H   -1.715547   1.545841  -1.114785
H   -0.642230   1.412227   0.280111
H   -3.321544  -0.043902  -0.027915
H   -2.221993  -0.228649   1.328899
--
0 1
C    2.768163   0.652642  -0.020344
C    1.678194  -0.288476  -0.455531
O    1.000671  -0.866301   0.650390
H    0.848629  -0.177617   1.305383
H    3.302083   1.058364  -0.881158
H    3.487696   0.143710   0.623894
H    2.350056   1.498938   0.534905
H    2.087244  -1.126565  -1.024317
H    0.961797   0.225730  -1.111399
$end

$rem
JOBTYPE          eda
EDA2             1
METHOD           wB97M-V
BASIS            def2-TZVPPD
SYMMETRY         false
MEM_TOTAL        50000
MEM_STATIC       10000
THRESH           14
SCF_CONVERGENCE  8
XC_GRID          000099000590
NL_GRID          1
EDA_CLS_DISP     true
FD_MAT_VEC_PROD  FALSE
$end
--------------------------------------------------------------
 ----------------------------------------------------------------
             Standard Nuclear Orientation (Angstroms)
    I     Atom           X                Y                Z
 ----------------------------------------------------------------
    1      C       1.6864480281    -1.3418979859    -0.0423373076
    2      C       2.2624880595     0.0264679881     0.2470007529
    3      O       1.6399950029     1.0484710495    -0.4827591128
    4      H       0.7606770359     1.1930990235    -0.1017640268
    5      H       2.2454460679    -2.1256230300     0.4743665825
    6      H       1.7155469363    -1.5458409004    -1.1147853264
    7      H       0.6422300551    -1.4122270064     0.2801107752
    8      H       3.3215440363     0.0439020047    -0.0279153354
    9      H       2.2219931521     0.2286489019     1.3288987725
   10      C      -2.7681629666    -0.6526419652    -0.0203438755
   11      C      -1.6781939986     0.2884760641    -0.4555308926
   12      O      -1.0006709021     0.8663009723     0.6503900962
   13      H      -0.8486288501     0.1776169193     1.3053830283
   14      H      -3.3020830415    -1.0583638937    -0.8811578627
   15      H      -3.4876959095    -0.1437100130     0.6238942261
   16      H      -2.3500559238    -1.4989380116     0.5349050215
   17      H      -2.0872440426     1.1265651116    -1.0243167910
   18      H      -0.9617970568    -0.2257298872    -1.1113989943
 ----------------------------------------------------------------
 Molecular Point Group                 C1    NOp =  1
 Largest Abelian Subgroup              C1    NOp =  1
 Nuclear Repulsion Energy =         258.30120274 hartrees
 There are       26 alpha and       26 beta electrons
 Requested basis set is def2-TZVPPD
 There are 164 shells and 432 basis functions

 Q-Chem warning in module libmdc/get_mega.C, line 171:

 Allowed MEM_STATIC has been capped at MEM_STATIC=8191.
 Reduce the value of MEM_STATIC to silence this warning.


 Total QAlloc Memory Limit  50000 MB
 Mega-Array Size      8007 MB
 MEM_STATIC part      8191 MB
 A cutoff of  1.0D-14 yielded  12509 shell pairs
 There are     86401 function pairs (    106412 Cartesian)
 Smallest overlap matrix eigenvalue = 6.18E-06

 Scale SEOQF with 1.000000e-01/1.000000e-01/1.000000e-01

 Standard Electronic Orientation quadrupole field applied
 Nucleus-field energy     =     0.0000000086 hartrees

 -----------------------------------------------------------------------
  General SCF calculation program by
  Eric Jon Sundstrom, Paul Horn, Yuezhi Mao, Dmitri Zuev, Alec White,
  David Stuck, Shaama M.S., Shane Yost, Joonho Lee, David Small,
  Daniel Levine, Susi Lehtola, Hugh Burton, Evgeny Epifanovsky,
  Bang C. Huynh
 -----------------------------------------------------------------------
================================================================
                 ALMO-EDA with the EDA2 driver                  
================================================================
 The second-generation ALMO-EDA (for DFT):                      
 P. R. Horn, Y. Mao and M. Head-Gordon, PCCP, 18, 23067 (2016)  
 Y. Mao et al. Annu. Rev. Phys. Chem. 72, 641 (2021)            
 Decomposition of the frozen energy:                            
 P. R. Horn, Y. Mao and M. Head-Gordon, JCP, 144, 114107 (2016) 
 FERF model for polarization:                                   
 P. R. Horn and M. Head-Gordon, JCP, 143, 114111 (2015)         
================================================================
 Using eda2 option set 1
 Option set summary: Frozen orbital wavefunction, initial wavefunction decomposition, and nDQ polarization.
--------------------------------
Printing EDA Options
--------------------------------
eda_child_super_basis      0
fragmo_guess_mode          0
child_mp                   1
child_mp_orders            232
cls_elec                   1
cls_disp                   1
scfmi_mode                 1
scfmi_occs                 0
scfmi_virts                0
frz_relax                  0
frz_relax_method           0
dc_pen_start               0
dc_pen_conv                0
dc_pen_increment           0
dc_pen_steps               0
dc_pen_thresh_factor       0
dc_pen_pre_newton_thresh   0
frz_ortho_decomp           1
frz_ortho_decomp_conv      6
plot_mo_ortho_frz          0
frgm_method                2
scfmi_freeze_ss            0
separate_rehyb             0
plot_diff_den              0
eda_nocv                   0
eda_vct_relax              1
disp_free_x                0
disp_free_c                0
eda_bsse                   0
eda_pct_a                  0
eda_covp                   0
--------------------------------
Attempting to make child job directory: /scratch/qchem120595//Frg1/
Attempting to make child job directory: /scratch/qchem120595//Frg2/
Creating input file /scratch/qchem120595/Frg1.input
using default PutDataFrgm: nothing
calling putenv with: QCSCRATCH=/scratch/qchem120595/ 
Spawning Job For Fragment 0
Done Job For Fragment 0
calling putenv with: QCSCRATCH=/scratch 
calling putenv with: QCTHREADS=6 
Creating input file /scratch/qchem120595/Frg2.input
using default PutDataFrgm: nothing
calling putenv with: QCSCRATCH=/scratch/qchem120595/ 
Spawning Job For Fragment 1
Done Job For Fragment 1
calling putenv with: QCSCRATCH=/scratch 
calling putenv with: QCTHREADS=6 
Doing General SCFMI
 Exchange:     0.1500 Hartree-Fock + 1.0000 wB97M-V + LR-HF
 Correlation:  1.0000 wB97M-V
 Using Euler-Maclaurin-Lebedev (99,590) quadrature formula
 Nonlocal Correlation:  VV10 with C = 0.0100 and b = 6.00 and scale = 1.00000
 Grid used for NLC:  SG-1 standard quadrature
performing fock build before subrot guess so that all methods have access
Printing subrot_rss_gen Method Specification:
Occupied Subspace Method is 0
Virtual Subspace Method is 0
Energy of the unrelaxed supersystem initial determinant -310.060713168229
write pseudocanon occs and virts to disk
write pseudocanon orbital energies to disk
Tolerance of ortho_decomp_scf: 1.00e-06
GDM subspace size: 20
Beginning the Orthogonal Decomposition of the Initial Supersystem Wavefunction
    1    -310.0077359914      8.67e-02     ortho_decomp Preconditoned Steepest Descent
    2    -310.0141737804      2.19e-03     ortho_decomp BFGS Step
    3    -310.0141962028      1.53e-04     ortho_decomp BFGS Step
    4    -310.0141962260      5.25e-06     ortho_decomp BFGS Step
    5    -310.0141962261      2.09e-07     ortho_decomp 00000 Convergence criterion met
 Hartree-Fock
 Hartree-Fock
 Hartree-Fock
 Exchange:     0.1500 Hartree-Fock + 1.0000 wB97M-V + LR-HF
 Correlation:  1.0000 wB97M-V
 Using Euler-Maclaurin-Lebedev (99,590) quadrature formula
 Nonlocal Correlation:  VV10 with C = 0.0100 and b = 6.00 and scale = 1.00000
 Grid used for NLC:  SG-1 standard quadrature
 Long-range K will be added via erf
 Coulomb attenuation parameter = 0.3 bohr**(-1)
 Nonlocal correlation = 2.036397553863e-01
Doing General SCFMI
 Exchange:     0.1500 Hartree-Fock + 1.0000 wB97M-V + LR-HF
 Correlation:  1.0000 wB97M-V
 Using Euler-Maclaurin-Lebedev (99,590) quadrature formula
 Nonlocal Correlation:  VV10 with C = 0.0100 and b = 6.00 and scale = 1.00000
 Grid used for NLC:  SG-1 standard quadrature
performing fock build at end of subrot_r(subrot) constructor so that all methods have access
<S^2> of initial wavefunction before polarization iterations 0.0000000000
Beginning iterations for the determination of the polarized wavefunction
Energy prior to optimization (guess energy) = -310.060713168229
Begin Timing: Total SCF Calculation
begin iterations for algorithm: DIIS         
the SCF tolerance is set to 1.00e-08
    1    -310.0607131682      3.00e-04     00000 
    2    -310.0632369728      1.03e-04     00000 
    3    -310.0634506494      6.85e-05     00000 
    4    -310.0635165703      2.05e-05     00000 
    5    -310.0635279837      7.42e-06     00000 
    6    -310.0635311190      3.28e-06     00000 
    7    -310.0635317371      1.42e-06     00000 
    8    -310.0635318731      4.57e-07     00000 
    9    -310.0635318832      2.18e-07     00000 
   10    -310.0635318842      1.05e-07     00000 
   11    -310.0635318844      3.12e-08     00000 
   12    -310.0635318845      1.46e-08     00000 
   13    -310.0635318845      6.99e-09     00000 Convergence criterion met
write pseudocanon occs and virts to disk
write pseudocanon orbital energies to disk
Timing for Total SCF: 322.00s (wall), 1931.92s (cpu)
<S^2> of polarized wavefunction after polarization iterations 0.0000000000
relaxing scfmi constraint to allow all rotations in the entire AO span
Doing General SCFMI
 Exchange:     0.1500 Hartree-Fock + 1.0000 wB97M-V + LR-HF
 Correlation:  1.0000 wB97M-V
 Using Euler-Maclaurin-Lebedev (99,590) quadrature formula
 Nonlocal Correlation:  VV10 with C = 0.0100 and b = 6.00 and scale = 1.00000
 Grid used for NLC:  SG-1 standard quadrature
performing fock build at end of subrot_r(subrot) constructor so that all methods have access
<S^2> of polarized wavefunction before ct-allowed iterations 0.0000000000
Beginning iterations for the determination of the CT-Allowed wavefunction
Energy prior to optimization (guess energy) = -310.063531884480
Begin Timing: Total SCF Calculation
begin iterations for algorithm: DIIS         
the SCF tolerance is set to 1.00e-08
    1    -310.0635318845      1.78e-04     00000 
    2    -310.0668983375      2.62e-05     00000 
    3    -310.0670161487      1.15e-05     00000 
    4    -310.0670244858      5.42e-06     00000 
    5    -310.0670268829      5.32e-07     00000 
    6    -310.0670269401      2.79e-07     00000 
    7    -310.0670269506      6.07e-08     00000 
    8    -310.0670269512      2.52e-08     00000 
    9    -310.0670269512      1.03e-08     00000 
   10    -310.0670269512      1.80e-09     00000 Convergence criterion met
write pseudocanon occs and virts to disk
write pseudocanon orbital energies to disk
Timing for Total SCF: 240.00s (wall), 1438.81s (cpu)
<S^2> of ct_allowed wavefunction after ct-allowed iterations 0.0000000000

================================
        Results of EDA2         
================================
Basic EDA Quantities
--------------------
Fragment Energies (Ha):
1 -155.0289211166
2 -155.0291705238
--------------------
  E_prp (kJ/mol) = 0.0000
  E_frz (kJ/mol) = -6.8829
  E_pol (kJ/mol) = -7.4006
  E_vct (kJ/mol) = -9.1764
  E_int (kJ/mol) = -23.4599
--------------------


Decomposition of frozen interaction energy
--------------------
  --------------------
  Orthogonal Frozen Decomposition:
  --------------------
     E_elec   (ELEC)   (kJ/mol) = -79.6633
     E_pauli  (PAULI)  (kJ/mol) = 92.3619
     E_disp   (DISP)   (kJ/mol) = -19.5815
  --------------------
  Classical Frozen Decomposition:
  --------------------
     E_cls_elec  (CLS ELEC)  (kJ/mol) = -39.5494
     E_mod_pauli (MOD PAULI) (kJ/mol) = 49.2414 (FRZ - CLS ELEC - CLS DISP)
     E_cls_disp  (CLS DISP)  (kJ/mol) = -16.5749
  --------------------
--------------------

Simplified EDA Summary (kJ/mol)
--------------------
 PREPARATION      0.0000
 FROZEN           -6.8829 (ELEC + PAULI + DISP)
[ELEC + PAULI = 9.6920, DISP = -16.5749]
 POLARIZATION    -7.4006
 CHARGE TRANSFER -9.1764
 TOTAL           -23.4599     (PRP + FRZ + POL + CT)
--------------------
 
 --------------------------------------------------------------
 
                    Orbital Energies (a.u.)
 --------------------------------------------------------------
 
 Alpha MOs
 -- Occupied --
-19.3540 -19.3086 -10.3984 -10.3776 -10.3462 -10.3298  -1.1740  -1.1338
 -0.8860  -0.8645  -0.7591  -0.7308  -0.6249  -0.6119  -0.5798  -0.5681
 -0.5543  -0.5284  -0.4960  -0.4876  -0.4820  -0.4662  -0.4493  -0.4171
 -0.3950  -0.3654
 -- Virtual --
  0.0299   0.0510   0.0568   0.0572   0.0755   0.0877   0.0956   0.1008
  0.1086   0.1222   0.1259   0.1315   0.1391   0.1463   0.1581   0.1707
  0.1746   0.1767   0.1831   0.1907   0.1925   0.2126   0.2206   0.2232
  0.2335   0.2516   0.2522   0.2597   0.2649   0.2703   0.2749   0.2795
  0.2886   0.2936   0.2992   0.3015   0.3089   0.3121   0.3198   0.3230
  0.3236   0.3309   0.3393   0.3411   0.3453   0.3498   0.3509   0.3627
  0.3666   0.3702   0.3718   0.3795   0.3832   0.3902   0.3967   0.3984
  0.4071   0.4126   0.4248   0.4324   0.4393   0.4400   0.4515   0.4543
  0.4566   0.4615   0.4657   0.4769   0.4834   0.4891   0.4943   0.4971
  0.5018   0.5111   0.5217   0.5344   0.5352   0.5401   0.5526   0.5606
  0.5745   0.5765   0.5840   0.6072   0.6136   0.6215   0.6335   0.6397
  0.6521   0.6677   0.6712   0.6817   0.6847   0.6898   0.6997   0.7042
  0.7160   0.7216   0.7256   0.7358   0.7375   0.7507   0.7639   0.7694
  0.7752   0.7807   0.7898   0.8038   0.8083   0.8187   0.8286   0.8378
  0.8526   0.8608   0.8735   0.8858   0.8925   0.9114   0.9167   0.9322
  0.9529   0.9638   0.9772   0.9852   0.9930   1.0054   1.0275   1.0372
  1.0484   1.0788   1.0805   1.0995   1.1175   1.1277   1.1450   1.1585
  1.1710   1.1793   1.1956   1.2115   1.2339   1.2366   1.2482   1.2549
  1.2743   1.2821   1.2966   1.2996   1.3082   1.3127   1.3292   1.3460
  1.3592   1.3679   1.3857   1.3999   1.4103   1.4273   1.4361   1.4468
  1.4718   1.4774   1.4855   1.5033   1.5193   1.5512   1.5563   1.5773
  1.5985   1.6242   1.6371   1.6439   1.6517   1.6632   1.6696   1.6820
  1.6935   1.7029   1.7118   1.7331   1.7612   1.7706   1.7864   1.8153
  1.8268   1.8825   1.9341   1.9552   1.9692   2.0005   2.0567   2.0703
  2.0724   2.0969   2.1160   2.1698   2.2028   2.2359   2.2428   2.2553
  2.2895   2.3262   2.3633   2.4092   2.4179   2.4410   2.4695   2.4981
  2.5070   2.5248   2.6853   2.6946   2.7341   2.7547   2.7956   2.8131
  2.8231   2.8456   2.8636   2.8820   2.8934   2.9011   2.9131   2.9161
  2.9373   2.9503   2.9588   2.9739   2.9909   3.0146   3.0360   3.0403
  3.0566   3.0793   3.0835   3.0928   3.1035   3.1399   3.1637   3.1688
  3.2007   3.2128   3.2313   3.2461   3.2533   3.2620   3.2786   3.2907
  3.2931   3.3013   3.3221   3.3296   3.3380   3.3544   3.3674   3.3708
  3.3914   3.4311   3.4454   3.4659   3.4785   3.5248   3.5433   3.5556
  3.5572   3.5935   3.6075   3.6182   3.6424   3.6709   3.6757   3.6959
  3.7195   3.7338   3.7458   3.7543   3.7676   3.7896   3.7902   3.8060
  3.8280   3.8467   3.8716   3.8779   3.9279   3.9421   3.9834   3.9971
  4.0019   4.0118   4.0293   4.0490   4.0656   4.0771   4.1094   4.1174
  4.1257   4.1319   4.1506   4.1696   4.1810   4.2029   4.2173   4.2272
  4.2317   4.2482   4.2502   4.2652   4.2798   4.2951   4.3095   4.3323
  4.3524   4.3680   4.3863   4.4100   4.4139   4.4335   4.4647   4.4729
  4.4947   4.5013   4.5131   4.5360   4.5767   4.5846   4.6099   4.6335
  4.6752   4.6951   4.7000   4.7172   4.7454   4.7799   4.7954   4.8183
  4.8294   4.8553   4.9453   4.9577   4.9615   4.9684   4.9795   5.0006
  5.0138   5.0420   5.0743   5.1133   5.1231   5.1692   5.2235   5.2388
  5.2860   5.3000   5.3412   5.3533   5.4010   5.4090   5.4129   5.4294
  5.4408   5.4573   5.4744   5.4934   5.5061   5.5234   5.5719   5.5823
  5.5999   5.6358   5.6593   5.7018   5.7296   5.7325   5.7582   5.7927
  5.8023   5.8427   5.8997   5.9392   6.0949   6.1440   6.3007   6.3195
  6.6347   6.6919   6.8571   6.8752   6.9041   6.9145   7.0178   7.0344
  7.0992   7.1259   7.3765   7.3998   7.5377   7.6283   7.7907   7.8336
 23.7494  23.8170  24.0474  24.0609  44.7340  44.8540
 --------------------------------------------------------------
 
          Ground-State Mulliken Net Atomic Charges

     Atom                 Charge (a.u.)
  ----------------------------------------
      1 C                    -0.795229
      2 C                    -0.232199
      3 O                    -0.484418
      4 H                     0.255145
      5 H                     0.320615
      6 H                     0.248532
      7 H                     0.114446
      8 H                     0.297401
      9 H                     0.280675
     10 C                    -1.036963
     11 C                    -0.107139
     12 O                    -0.448121
     13 H                     0.163702
     14 H                     0.299510
     15 H                     0.281519
     16 H                     0.270022
     17 H                     0.320011
     18 H                     0.252490
  ----------------------------------------
  Sum of atomic charges =     0.000000

 -----------------------------------------------------------------
                    Cartesian Multipole Moments
 -----------------------------------------------------------------
    Charge (ESU x 10^10)
                 0.0000
    Dipole Moment (Debye)
         X      -1.9113      Y      -2.4111      Z       1.0011
       Tot       3.2355
    Quadrupole Moments (Debye-Ang)
        XX     -38.9433     XY      -2.2638     YY     -44.1133
        XZ       3.0242     YZ      -0.1801     ZZ     -39.9119
    Octopole Moments (Debye-Ang^2)
       XXX      -3.4187    XXY      -4.8611    XYY      -3.1977
       YYY       4.6841    XXZ       0.2248    XYZ       4.2924
       YYZ      -0.3448    XZZ      -2.9397    YZZ       0.3123
       ZZZ       4.3922
    Hexadecapole Moments (Debye-Ang^3)
      XXXX    -977.5230   XXXY     -11.0589   XXYY    -220.0125
      XYYY      -4.6348   YYYY    -258.0723   XXXZ       3.5666
      XXYZ       3.2182   XYYZ       6.1431   YYYZ      -3.0190
      XXZZ    -187.0257   XYZZ      -0.0435   YYZZ     -61.8848
      XZZZ      -3.8228   YZZZ       2.7262   ZZZZ    -108.2049
 -----------------------------------------------------------------
 Total job time:  1613.59s(wall), 6099.79s(cpu) 
 Fri Feb 28 10:26:54 2025

        *************************************************************
        *                                                           *
        *  Thank you very much for using Q-Chem.  Have a nice day.  *
        *                                                           *
        *************************************************************


