
Running Job 1 of 1 004_ethanol_dimer_51_almo.inp
qchem 004_ethanol_dimer_51_almo.inp_151051.0 /scratch/qchem151051/ 6
/home/kchung25/qchem/5.4.0/exe/qcprog.exe_s 004_ethanol_dimer_51_almo.inp_151051.0 /scratch/qchem151051/
                  Welcome to Q-Chem
     A Quantum Leap Into The Future Of Chemistry


 Q-Chem 5.4, Q-Chem, Inc., Pleasanton, CA (2021)

 E. Epifanovsky,  A. T. B. Gilbert,  Xintian Feng,  Joonho Lee,  Yuezhi Mao,  
 N. Mardirossian,  P. Pokhilko,  A. White,  M. Wormit,  M. P. Coons,  
 A. L. Dempwolff,  Zhengting Gan,  D. Hait,  P. R. Horn,  L. D. Jacobson,  
 I. Kaliman,  J. Kussmann,  A. W. Lange,  Ka Un Lao,  D. S. Levine,  Jie Liu,  
 S. C. McKenzie,  A. F. Morrison,  K. Nanda,  F. Plasser,  D. R. Rehn,  
 M. L. Vidal,  Zhi-Qiang You,  Ying Zhu,  B. Alam,  B. Albrecht,  
 A. Aldossary,  E. Alguire,  J. H. Andersen,  D. Barton,  K. Begam,  A. Behn,  
 Y. A. Bernard,  E. J. Berquist,  H. Burton,  A. Carreras,  K. Carter-Fenk,  
 Romit Chakraborty,  A. D. Chien,  K. D. Closser,  V. Cofer-Shabica,  
 S. Dasgupta,  Jia Deng,  M. de Wergifosse,  M. Diedenhofen,  Hainam Do,  
 S. Ehlert,  Po-Tung Fang,  S. Fatehi,  Qingguo Feng,  T. Friedhoff,  
 J. Gayvert,  Qinghui Ge,  G. Gidofalvi,  M. Goldey,  J. Gomes,  
 C. Gonzalez-Espinoza,  S. Gulania,  A. Gunina,  M. W. D. Hanson-Heine,  
 P. H. P. Harbach,  A. W. Hauser,  M. F. Herbst,  M. Hernandez Vera,  
 M. Hodecker,  Z. C. Holden,  S. Houck,  Xunkun Huang,  Kerwin Hui,  
 B. C. Huynh,  M. Ivanov,  Hyunjun Ji,  Hanjie Jiang,  B. Kaduk,  S. Kaehler,  
 K. Khistyaev,  Jaehoon Kim,  P. Klunzinger,  Z. Koczor-Benda,  
 Joong Hoon Koh,  D. Kosenkov,  L. Koulias,  T. Kowalczyk,  C. M. Krauter,  
 K. Kue,  A. Kunitsa,  T. Kus,  A. Landau,  K. V. Lawler,  D. Lefrancois,  
 S. Lehtola,  Rain Li,  Yi-Pei Li,  Jiashu Liang,  M. Liebenthal,  
 Hung-Hsuan Lin,  You-Sheng Lin,  Fenglai Liu,  Kuan-Yu Liu,  
 M. Loipersberger,  A. Luenser,  A. Manjanath,  P. Manohar,  E. Mansoor,  
 S. F. Manzer,  Shan-Ping Mao,  A. V. Marenich,  T. Markovich,  S. Mason,  
 S. A. Maurer,  P. F. McLaughlin,  M. F. S. J. Menger,  J.-M. Mewes,  
 S. A. Mewes,  P. Morgante,  J. W. Mullinax,  K. J. Oosterbaan,  G. Paran,  
 Alexander C. Paul,  Suranjan K. Paul,  F. Pavosevic,  Zheng Pei,  S. Prager,  
 E. I. Proynov,  E. Ramos,  B. Rana,  A. E. Rask,  A. Rettig,  R. M. Richard,  
 F. Rob,  E. Rossomme,  T. Scheele,  M. Scheurer,  M. Schneider,  
 N. Sergueev,  S. M. Sharada,  W. Skomorowski,  D. W. Small,  C. J. Stein,  
 Yu-Chuan Su,  E. J. Sundstrom,  Zhen Tao,  J. Thirman,  T. Tsuchimochi,  
 N. M. Tubman,  S. P. Veccham,  O. Vydrov,  J. Wenzel,  J. Witte,  A. Yamada,  
 Kun Yao,  S. Yeganeh,  S. R. Yost,  A. Zech,  Igor Ying Zhang,  Xing Zhang,  
 Yu Zhang,  D. Zuev,  A. Aspuru-Guzik,  A. T. Bell,  N. A. Besley,  
 K. B. Bravaya,  B. R. Brooks,  D. Casanova,  Jeng-Da Chai,  S. Coriani,  
 C. J. Cramer,  A. E. DePrince, III,  R. A. DiStasio Jr.,  A. Dreuw,  
 B. D. Dunietz,  T. R. Furlani,  W. A. Goddard III,  S. Grimme,  
 S. Hammes-Schiffer,  T. Head-Gordon,  W. J. Hehre,  Chao-Ping Hsu,  
 T.-C. Jagau,  Yousung Jung,  A. Klamt,  Jing Kong,  D. S. Lambrecht,  
 WanZhen Liang,  N. J. Mayhall,  C. W. McCurdy,  J. B. Neaton,  T. Neudecker,  
 C. Ochsenfeld,  J. A. Parkhill,  R. Peverati,  V. A. Rassolov,  Yihan Shao,  
 L. V. Slipchenko,  R. P. Steele,  J. E. Subotnik,  A. J. W. Thom,  
 A. Tkatchenko,  D. G. Truhlar,  T. Van Voorhis,  T. A. Wesolowski,  
 K. B. Whaley,  H. L. Woodcock III,  P. M. Zimmerman,  S. Faraji,  
 P. M. W. Gill,  M. Head-Gordon,  J. M. Herbert,  A. I. Krylov

 Additional authors since Version 5.4.0: 
 Chandrima Chakravarty,  L. Cunha,  R. Kang,  Yongbin Kim,  S. Kotaru,  
 Shaozhi Li,  Xiangyuan Li,  F. Matz,  A. Molle,  V. Parravicini,  
 Haisheng Ren,  Hengyuan Shen,  Yingli Su,  Hung-Yi Tsai,  C. Utku,  
 Fang Wang,  Jeff Yang,  F. Zeller

 Contributors to earlier versions of Q-Chem not listed above: 
 R. D. Adamson,  B. Austin,  R. Baer,  J. Baker,  G. J. O. Beran,  
 K. Brandhorst,  S. T. Brown,  E. F. C. Byrd,  Arup K. Chakraborty,  
 G. K. L. Chan,  Chun-Min Chang,  Yunqing Chen,  C.-L. Cheng,  
 Siu Hung Chien,  D. M. Chipman,  D. L. Crittenden,  H. Dachsel,  
 R. J. Doerksen,  A. D. Dutoi,  R. G. Edgar,  J. Fosso-Tande,  
 L. Fusti-Molnar,  D. Ghosh,  A. Ghysels,  A. Golubeva-Zadorozhnaya,  
 J. Gonthier,  M. S. Gordon,  S. R. Gwaltney,  G. Hawkins,  J. E. Herr,  
 A. Heyden,  S. Hirata,  E. G. Hohenstein,  G. Kedziora,  F. J. Keil,  
 C. Kelley,  Jihan Kim,  R. A. King,  R. Z. Khaliullin,  P. P. Korambath,  
 W. Kurlancheek,  A. Laurent,  A. M. Lee,  M. S. Lee,  S. V. Levchenko,  
 Ching Yeh Lin,  D. Liotard,  E. Livshits,  R. C. Lochan,  I. Lotan,  
 L. A. Martinez-Martinez,  P. E. Maslen,  N. Nair,  D. P. O'Neill,  
 D. Neuhauser,  E. Neuscamman,  C. M. Oana,  R. Olivares-Amaya,  R. Olson,  
 T. M. Perrine,  B. Peters,  P. A. Pieniazek,  A. Prociuk,  Y. M. Rhee,  
 J. Ritchie,  M. A. Rohrdanz,  E. Rosta,  N. J. Russ,  H. F. Schaefer III,  
 M. W. Schmidt,  N. E. Schultz,  S. Sharma,  N. Shenvi,  C. D. Sherrill,  
 A. C. Simmonett,  A. Sodt,  T. Stein,  D. Stuck,  K. S. Thanthiriwatte,  
 V. Vanovschi,  L. Vogt,  Tao Wang,  A. Warshel,  M. A. Watson,  
 C. F. Williams,  Q. Wu,  X. Xu,  Jun Yang,  W. Zhang,  Yan Zhao

   Please cite Q-Chem as follows:
  "Software for the frontiers of quantum chemistry:
   An overview of developments in the Q-Chem 5 package"
   J. Chem. Phys. 155, 084801 (2021)
   https://doi.org/10.1063/5.0055522 (open access)

 Q-Chem 5.4.2 for Intel X86 EM64T Linux

 Parts of Q-Chem use Armadillo 9.900.5 (Nocturnal Misbehaviour).
 http://arma.sourceforge.net/

 Q-Chem begins on Fri Feb 28 21:00:34 2025  

 Host: 
0

     Scratch files written to /scratch/qchem151051//
 Dec1321 |scratch|qcdevops|jenkins|workspace|build_RNUM 5684   
 Processing $rem in /home/kchung25/qchem/5.4.0/config/preferences:
 Processing $rem in /home/kchung25/.qchemrc:

 Q-Chem warning in module libgen/rem_setup.C, line 3079:

 Neither GIA nor STOLL is specified by user. Use STOLL as the default


 Checking the input file for inconsistencies... 	...done.

--------------------------------------------------------------
User input:
--------------------------------------------------------------
$molecule
0 1
--
0 1
C   -1.604285   0.904735   0.815582
C   -1.613329  -0.262638  -0.137199
O   -2.903206  -0.559753  -0.625737
H   -3.485346  -0.688585   0.127148
H   -0.582036   1.146838   1.113213
H   -2.183378   0.681090   1.717452
H   -2.043517   1.785981   0.343064
H   -1.163724  -1.144697   0.344271
H   -0.995953  -0.038058  -1.010236
--
0 1
C    1.952342  -1.151209   0.460550
C    2.563812   0.055049  -0.193818
O    1.527944   0.977572  -0.454703
H    1.893312   1.751214  -0.887803
H    2.713795  -1.896737   0.694150
H    1.210476  -1.608001  -0.197857
H    1.450411  -0.867626   1.388394
H    3.071878  -0.236948  -1.123827
H    3.324938   0.497354   0.464849
$end

$rem
JOBTYPE          eda
EDA2             1
METHOD           wB97M-V
BASIS            def2-TZVPPD
SYMMETRY         false
MEM_TOTAL        50000
MEM_STATIC       10000
THRESH           14
SCF_CONVERGENCE  8
XC_GRID          000099000590
NL_GRID          1
EDA_CLS_DISP     true
FD_MAT_VEC_PROD  FALSE
$end
--------------------------------------------------------------
 ----------------------------------------------------------------
             Standard Nuclear Orientation (Angstroms)
    I     Atom           X                Y                Z
 ----------------------------------------------------------------
    1      C       1.6042848957    -0.9047349770     0.8155824827
    2      C       1.6133290266     0.2626378200    -0.1371987648
    3      O       2.9032060690     0.5597526110    -0.6257367798
    4      H       3.4853460515     0.6885847233     0.1271482146
    5      H       0.5820358649    -1.1468378304     1.1132134959
    6      H       2.1833778804    -0.6810898328     1.7174524568
    7      H       2.0435168414    -1.7859811132     0.3430646861
    8      H       1.1637240806     1.1446969589     0.3442710312
    9      H       0.9959530408     0.0380576850    -1.0102357402
   10      C      -1.9523419232     1.1512092379     0.4605499136
   11      C      -2.5638119973    -0.0550488511    -0.1938178532
   12      O      -1.5279440628    -0.9775719910    -0.4547026187
   13      H      -1.8933121098    -1.7512140532    -0.8878024681
   14      H      -2.7137948711     1.8967373496     0.6941497269
   15      H      -1.2104758614     1.6080010376    -0.1978571557
   16      H      -1.4504109810     0.8676263939     1.3883939925
   17      H      -3.0718779387     0.2369479929    -1.1238269341
   18      H      -3.3249380579    -0.4973536492     0.4648492123
 ----------------------------------------------------------------
 Molecular Point Group                 C1    NOp =  1
 Largest Abelian Subgroup              C1    NOp =  1
 Nuclear Repulsion Energy =         249.45812480 hartrees
 There are       26 alpha and       26 beta electrons
 Requested basis set is def2-TZVPPD
 There are 164 shells and 432 basis functions

 Q-Chem warning in module libmdc/get_mega.C, line 171:

 Allowed MEM_STATIC has been capped at MEM_STATIC=8191.
 Reduce the value of MEM_STATIC to silence this warning.


 Total QAlloc Memory Limit  50000 MB
 Mega-Array Size      8007 MB
 MEM_STATIC part      8191 MB
 A cutoff of  1.0D-14 yielded  12327 shell pairs
 There are     84893 function pairs (    104378 Cartesian)
 Smallest overlap matrix eigenvalue = 8.65E-06

 Scale SEOQF with 1.000000e-01/1.000000e-01/1.000000e-01

 Standard Electronic Orientation quadrupole field applied
 Nucleus-field energy     =     0.0000000092 hartrees

 -----------------------------------------------------------------------
  General SCF calculation program by
  Eric Jon Sundstrom, Paul Horn, Yuezhi Mao, Dmitri Zuev, Alec White,
  David Stuck, Shaama M.S., Shane Yost, Joonho Lee, David Small,
  Daniel Levine, Susi Lehtola, Hugh Burton, Evgeny Epifanovsky,
  Bang C. Huynh
 -----------------------------------------------------------------------
================================================================
                 ALMO-EDA with the EDA2 driver                  
================================================================
 The second-generation ALMO-EDA (for DFT):                      
 P. R. Horn, Y. Mao and M. Head-Gordon, PCCP, 18, 23067 (2016)  
 Y. Mao et al. Annu. Rev. Phys. Chem. 72, 641 (2021)            
 Decomposition of the frozen energy:                            
 P. R. Horn, Y. Mao and M. Head-Gordon, JCP, 144, 114107 (2016) 
 FERF model for polarization:                                   
 P. R. Horn and M. Head-Gordon, JCP, 143, 114111 (2015)         
================================================================
 Using eda2 option set 1
 Option set summary: Frozen orbital wavefunction, initial wavefunction decomposition, and nDQ polarization.
--------------------------------
Printing EDA Options
--------------------------------
eda_child_super_basis      0
fragmo_guess_mode          0
child_mp                   1
child_mp_orders            232
cls_elec                   1
cls_disp                   1
scfmi_mode                 1
scfmi_occs                 0
scfmi_virts                0
frz_relax                  0
frz_relax_method           0
dc_pen_start               0
dc_pen_conv                0
dc_pen_increment           0
dc_pen_steps               0
dc_pen_thresh_factor       0
dc_pen_pre_newton_thresh   0
frz_ortho_decomp           1
frz_ortho_decomp_conv      6
plot_mo_ortho_frz          0
frgm_method                2
scfmi_freeze_ss            0
separate_rehyb             0
plot_diff_den              0
eda_nocv                   0
eda_vct_relax              1
disp_free_x                0
disp_free_c                0
eda_bsse                   0
eda_pct_a                  0
eda_covp                   0
--------------------------------
Attempting to make child job directory: /scratch/qchem151051//Frg1/
Attempting to make child job directory: /scratch/qchem151051//Frg2/
Creating input file /scratch/qchem151051/Frg1.input
using default PutDataFrgm: nothing
calling putenv with: QCSCRATCH=/scratch/qchem151051/ 
Spawning Job For Fragment 0
Done Job For Fragment 0
calling putenv with: QCSCRATCH=/scratch 
calling putenv with: QCTHREADS=6 
Creating input file /scratch/qchem151051/Frg2.input
using default PutDataFrgm: nothing
calling putenv with: QCSCRATCH=/scratch/qchem151051/ 
Spawning Job For Fragment 1
Done Job For Fragment 1
calling putenv with: QCSCRATCH=/scratch 
calling putenv with: QCTHREADS=6 
Doing General SCFMI
 Exchange:     0.1500 Hartree-Fock + 1.0000 wB97M-V + LR-HF
 Correlation:  1.0000 wB97M-V
 Using Euler-Maclaurin-Lebedev (99,590) quadrature formula
 Nonlocal Correlation:  VV10 with C = 0.0100 and b = 6.00 and scale = 1.00000
 Grid used for NLC:  SG-1 standard quadrature
performing fock build before subrot guess so that all methods have access
Printing subrot_rss_gen Method Specification:
Occupied Subspace Method is 0
Virtual Subspace Method is 0
Energy of the unrelaxed supersystem initial determinant -310.060825658113
write pseudocanon occs and virts to disk
write pseudocanon orbital energies to disk
Tolerance of ortho_decomp_scf: 1.00e-06
GDM subspace size: 20
Beginning the Orthogonal Decomposition of the Initial Supersystem Wavefunction
    1    -310.0383361673      6.23e-02     ortho_decomp Preconditoned Steepest Descent
    2    -310.0421391759      1.71e-03     ortho_decomp BFGS Step
    3    -310.0421548192      1.32e-04     ortho_decomp BFGS Step
    4    -310.0421548386      4.85e-06     ortho_decomp BFGS Step
    5    -310.0421548387      1.42e-07     ortho_decomp 00000 Convergence criterion met
 Hartree-Fock
 Hartree-Fock
 Hartree-Fock
 Exchange:     0.1500 Hartree-Fock + 1.0000 wB97M-V + LR-HF
 Correlation:  1.0000 wB97M-V
 Using Euler-Maclaurin-Lebedev (99,590) quadrature formula
 Nonlocal Correlation:  VV10 with C = 0.0100 and b = 6.00 and scale = 1.00000
 Grid used for NLC:  SG-1 standard quadrature
 Long-range K will be added via erf
 Coulomb attenuation parameter = 0.3 bohr**(-1)
 Nonlocal correlation = 2.044737809420e-01
Doing General SCFMI
 Exchange:     0.1500 Hartree-Fock + 1.0000 wB97M-V + LR-HF
 Correlation:  1.0000 wB97M-V
 Using Euler-Maclaurin-Lebedev (99,590) quadrature formula
 Nonlocal Correlation:  VV10 with C = 0.0100 and b = 6.00 and scale = 1.00000
 Grid used for NLC:  SG-1 standard quadrature
performing fock build at end of subrot_r(subrot) constructor so that all methods have access
<S^2> of initial wavefunction before polarization iterations 0.0000000000
Beginning iterations for the determination of the polarized wavefunction
Energy prior to optimization (guess energy) = -310.060825658113
Begin Timing: Total SCF Calculation
begin iterations for algorithm: DIIS         
the SCF tolerance is set to 1.00e-08
    1    -310.0608256581      1.35e-04     00000 
    2    -310.0613149866      5.61e-05     00000 
    3    -310.0613595335      3.04e-05     00000 
    4    -310.0613724329      1.02e-05     00000 
    5    -310.0613742675      3.34e-06     00000 
    6    -310.0613746219      1.49e-06     00000 
    7    -310.0613746921      4.54e-07     00000 
    8    -310.0613746987      1.99e-07     00000 
    9    -310.0613746993      9.17e-08     00000 
   10    -310.0613746994      2.44e-08     00000 
   11    -310.0613746994      9.18e-09     00000 Convergence criterion met
write pseudocanon occs and virts to disk
write pseudocanon orbital energies to disk
Timing for Total SCF: 257.00s (wall), 1542.55s (cpu)
<S^2> of polarized wavefunction after polarization iterations 0.0000000000
relaxing scfmi constraint to allow all rotations in the entire AO span
Doing General SCFMI
 Exchange:     0.1500 Hartree-Fock + 1.0000 wB97M-V + LR-HF
 Correlation:  1.0000 wB97M-V
 Using Euler-Maclaurin-Lebedev (99,590) quadrature formula
 Nonlocal Correlation:  VV10 with C = 0.0100 and b = 6.00 and scale = 1.00000
 Grid used for NLC:  SG-1 standard quadrature
performing fock build at end of subrot_r(subrot) constructor so that all methods have access
<S^2> of polarized wavefunction before ct-allowed iterations 0.0000000000
Beginning iterations for the determination of the CT-Allowed wavefunction
Energy prior to optimization (guess energy) = -310.061374699449
Begin Timing: Total SCF Calculation
begin iterations for algorithm: DIIS         
the SCF tolerance is set to 1.00e-08
    1    -310.0613746994      8.01e-05     00000 
    2    -310.0620034645      8.92e-06     00000 
    3    -310.0620204481      2.06e-06     00000 
    4    -310.0620208321      1.68e-06     00000 
    5    -310.0620210175      2.25e-07     00000 
    6    -310.0620210219      7.64e-08     00000 
    7    -310.0620210225      1.83e-08     00000 
    8    -310.0620210226      3.72e-09     00000 Convergence criterion met
write pseudocanon occs and virts to disk
write pseudocanon orbital energies to disk
Timing for Total SCF: 180.00s (wall), 1082.72s (cpu)
<S^2> of ct_allowed wavefunction after ct-allowed iterations 0.0000000000

================================
        Results of EDA2         
================================
Basic EDA Quantities
--------------------
Fragment Energies (Ha):
1 -155.0293517974
2 -155.0296114428
--------------------
  E_prp (kJ/mol) = 0.0000
  E_frz (kJ/mol) = -4.8898
  E_pol (kJ/mol) = -1.4415
  E_vct (kJ/mol) = -1.6969
  E_int (kJ/mol) = -8.0283
--------------------


Decomposition of frozen interaction energy
--------------------
  --------------------
  Orthogonal Frozen Decomposition:
  --------------------
     E_elec   (ELEC)   (kJ/mol) = -25.8215
     E_pauli  (PAULI)  (kJ/mol) = 34.0938
     E_disp   (DISP)   (kJ/mol) = -13.1621
  --------------------
  Classical Frozen Decomposition:
  --------------------
     E_cls_elec  (CLS ELEC)  (kJ/mol) = -9.7465
     E_mod_pauli (MOD PAULI) (kJ/mol) = 16.4048 (FRZ - CLS ELEC - CLS DISP)
     E_cls_disp  (CLS DISP)  (kJ/mol) = -11.5481
  --------------------
--------------------

Simplified EDA Summary (kJ/mol)
--------------------
 PREPARATION      0.0000
 FROZEN           -4.8898 (ELEC + PAULI + DISP)
[ELEC + PAULI = 6.6583, DISP = -11.5481]
 POLARIZATION    -1.4415
 CHARGE TRANSFER -1.6969
 TOTAL           -8.0283     (PRP + FRZ + POL + CT)
--------------------
 
 --------------------------------------------------------------
 
                    Orbital Energies (a.u.)
 --------------------------------------------------------------
 
 Alpha MOs
 -- Occupied --
-19.3382 -19.3197 -10.3918 -10.3715 -10.3324 -10.3185  -1.1597  -1.1412
 -0.8788  -0.8582  -0.7328  -0.7283  -0.6387  -0.6008  -0.5822  -0.5521
 -0.5330  -0.5179  -0.4888  -0.4735  -0.4697  -0.4607  -0.4421  -0.4146
 -0.3851  -0.3684
 -- Virtual --
  0.0281   0.0448   0.0545   0.0627   0.0717   0.0836   0.0886   0.0984
  0.1155   0.1198   0.1244   0.1334   0.1393   0.1497   0.1657   0.1707
  0.1769   0.1835   0.1930   0.2014   0.2047   0.2075   0.2155   0.2259
  0.2399   0.2463   0.2483   0.2568   0.2626   0.2687   0.2753   0.2753
  0.2931   0.2964   0.3024   0.3069   0.3125   0.3165   0.3225   0.3260
  0.3334   0.3346   0.3404   0.3457   0.3482   0.3506   0.3562   0.3580
  0.3657   0.3723   0.3741   0.3858   0.3918   0.3949   0.3966   0.4086
  0.4110   0.4140   0.4171   0.4276   0.4423   0.4462   0.4483   0.4495
  0.4576   0.4635   0.4743   0.4856   0.4891   0.4970   0.4984   0.5080
  0.5122   0.5136   0.5226   0.5406   0.5458   0.5475   0.5592   0.5630
  0.5674   0.5838   0.5893   0.6031   0.6089   0.6197   0.6371   0.6436
  0.6513   0.6590   0.6644   0.6703   0.6859   0.6952   0.6996   0.7122
  0.7170   0.7221   0.7318   0.7436   0.7504   0.7534   0.7609   0.7651
  0.7687   0.7727   0.7895   0.7960   0.8033   0.8169   0.8196   0.8301
  0.8336   0.8465   0.8563   0.8673   0.8792   0.8974   0.9085   0.9190
  0.9351   0.9487   0.9567   0.9629   0.9961   1.0078   1.0128   1.0235
  1.0500   1.0683   1.0900   1.0986   1.1206   1.1532   1.1565   1.1653
  1.1818   1.1900   1.2000   1.2128   1.2286   1.2329   1.2550   1.2592
  1.2766   1.2901   1.2994   1.3054   1.3161   1.3393   1.3458   1.3565
  1.3693   1.3712   1.3788   1.3843   1.3973   1.4131   1.4171   1.4259
  1.4409   1.4594   1.4866   1.5094   1.5118   1.5358   1.5434   1.5597
  1.5956   1.6044   1.6271   1.6609   1.6666   1.6673   1.6806   1.6839
  1.7016   1.7027   1.7239   1.7414   1.7510   1.7810   1.7937   1.8086
  1.8216   1.8518   1.9205   1.9475   1.9880   1.9953   2.0243   2.0501
  2.0792   2.0963   2.1133   2.1205   2.1710   2.1849   2.2298   2.2412
  2.2740   2.2983   2.3534   2.3747   2.4012   2.4113   2.4215   2.4650
  2.5088   2.5454   2.6875   2.7115   2.7258   2.7721   2.8022   2.8088
  2.8281   2.8555   2.8727   2.8775   2.8903   2.9166   2.9335   2.9401
  2.9481   2.9554   2.9797   2.9821   3.0007   3.0103   3.0265   3.0557
  3.0642   3.0755   3.1001   3.1154   3.1367   3.1442   3.1514   3.1799
  3.2067   3.2209   3.2218   3.2279   3.2401   3.2458   3.2633   3.2740
  3.2871   3.3005   3.3046   3.3214   3.3355   3.3510   3.3655   3.3663
  3.4326   3.4588   3.4724   3.4931   3.5007   3.5274   3.5363   3.5495
  3.5705   3.5892   3.5979   3.6017   3.6115   3.6308   3.6496   3.6765
  3.6799   3.7253   3.7474   3.7549   3.7639   3.7679   3.7823   3.8066
  3.8267   3.8494   3.8720   3.9137   3.9207   3.9450   3.9922   4.0186
  4.0239   4.0344   4.0386   4.0485   4.0631   4.0737   4.0892   4.1016
  4.1270   4.1383   4.1491   4.1562   4.1677   4.1790   4.1946   4.2052
  4.2158   4.2459   4.2551   4.2663   4.2740   4.2888   4.3217   4.3359
  4.3397   4.3506   4.3644   4.4071   4.4270   4.4435   4.4588   4.4612
  4.4795   4.5009   4.5146   4.5300   4.5356   4.5695   4.6133   4.6266
  4.6512   4.6831   4.6881   4.7013   4.7233   4.7499   4.8177   4.8311
  4.8378   4.8688   4.9251   4.9416   4.9481   4.9595   4.9928   5.0091
  5.0142   5.0332   5.0888   5.0943   5.1074   5.1557   5.2239   5.2507
  5.3015   5.3100   5.3246   5.3511   5.4071   5.4120   5.4230   5.4287
  5.4382   5.4484   5.4641   5.4981   5.5091   5.5582   5.5666   5.6024
  5.6241   5.6411   5.6525   5.6907   5.7492   5.7575   5.7655   5.7872
  5.8245   5.8354   5.9136   5.9670   6.1077   6.1282   6.2612   6.3111
  6.6669   6.6792   6.8199   6.8296   6.8762   6.9028   6.9762   6.9899
  7.0586   7.0848   7.3857   7.4016   7.5581   7.5633   7.7809   7.8246
 23.7447  23.7867  24.0757  24.1197  44.8020  44.8405
 --------------------------------------------------------------
 
          Ground-State Mulliken Net Atomic Charges

     Atom                 Charge (a.u.)
  ----------------------------------------
      1 C                    -0.994996
      2 C                     0.057023
      3 O                    -0.434186
      4 H                     0.142856
      5 H                     0.236120
      6 H                     0.315140
      7 H                     0.301763
      8 H                     0.172764
      9 H                     0.187105
     10 C                    -0.861839
     11 C                    -0.316755
     12 O                    -0.280538
     13 H                     0.080779
     14 H                     0.332826
     15 H                     0.186077
     16 H                     0.239105
     17 H                     0.322388
     18 H                     0.314368
  ----------------------------------------
  Sum of atomic charges =     0.000000

 -----------------------------------------------------------------
                    Cartesian Multipole Moments
 -----------------------------------------------------------------
    Charge (ESU x 10^10)
                 0.0000
    Dipole Moment (Debye)
         X      -2.4024      Y      -0.4902      Z       1.1465
       Tot       2.7067
    Quadrupole Moments (Debye-Ang)
        XX     -36.9573     XY       1.4954     YY     -38.7160
        XZ       6.9433     YZ       2.9863     ZZ     -41.2848
    Octopole Moments (Debye-Ang^2)
       XXX      -7.5398    XXY      -3.6387    XYY      -6.3761
       YYY      -9.7226    XXZ      14.0770    XYZ       0.8566
       YYZ      -5.0442    XZZ      -4.5120    YZZ      -2.9326
       ZZZ      -4.7565
    Hexadecapole Moments (Debye-Ang^3)
      XXXX   -1073.4463   XXXY      38.8760   XXYY    -215.3160
      XYYY      25.1307   YYYY    -219.0487   XXXZ      65.6447
      XXYZ      21.3506   XYYZ       8.9174   YYYZ      13.9700
      XXZZ    -221.6369   XYZZ       7.6093   YYZZ     -60.4474
      XZZZ       4.9968   YZZZ       4.9623   ZZZZ    -140.4931
 -----------------------------------------------------------------
 Total job time:  1462.96s(wall), 5241.97s(cpu) 
 Fri Feb 28 21:24:57 2025

        *************************************************************
        *                                                           *
        *  Thank you very much for using Q-Chem.  Have a nice day.  *
        *                                                           *
        *************************************************************


