
Running Job 1 of 1 004_ethanol_dimer_22_almo.inp
qchem 004_ethanol_dimer_22_almo.inp_116895.0 /scratch/qchem116895/ 6
/home/kchung25/qchem/5.4.0/exe/qcprog.exe_s 004_ethanol_dimer_22_almo.inp_116895.0 /scratch/qchem116895/
                  Welcome to Q-Chem
     A Quantum Leap Into The Future Of Chemistry


 Q-Chem 5.4, Q-Chem, Inc., Pleasanton, CA (2021)

 E. Epifanovsky,  A. T. B. Gilbert,  Xintian Feng,  Joonho Lee,  Yuezhi Mao,  
 N. Mardirossian,  P. Pokhilko,  A. White,  M. Wormit,  M. P. Coons,  
 A. L. Dempwolff,  Zhengting Gan,  D. Hait,  P. R. Horn,  L. D. Jacobson,  
 I. Kaliman,  J. Kussmann,  A. W. Lange,  Ka Un Lao,  D. S. Levine,  Jie Liu,  
 S. C. McKenzie,  A. F. Morrison,  K. Nanda,  F. Plasser,  D. R. Rehn,  
 M. L. Vidal,  Zhi-Qiang You,  Ying Zhu,  B. Alam,  B. Albrecht,  
 A. Aldossary,  E. Alguire,  J. H. Andersen,  D. Barton,  K. Begam,  A. Behn,  
 Y. A. Bernard,  E. J. Berquist,  H. Burton,  A. Carreras,  K. Carter-Fenk,  
 Romit Chakraborty,  A. D. Chien,  K. D. Closser,  V. Cofer-Shabica,  
 S. Dasgupta,  Jia Deng,  M. de Wergifosse,  M. Diedenhofen,  Hainam Do,  
 S. Ehlert,  Po-Tung Fang,  S. Fatehi,  Qingguo Feng,  T. Friedhoff,  
 J. Gayvert,  Qinghui Ge,  G. Gidofalvi,  M. Goldey,  J. Gomes,  
 C. Gonzalez-Espinoza,  S. Gulania,  A. Gunina,  M. W. D. Hanson-Heine,  
 P. H. P. Harbach,  A. W. Hauser,  M. F. Herbst,  M. Hernandez Vera,  
 M. Hodecker,  Z. C. Holden,  S. Houck,  Xunkun Huang,  Kerwin Hui,  
 B. C. Huynh,  M. Ivanov,  Hyunjun Ji,  Hanjie Jiang,  B. Kaduk,  S. Kaehler,  
 K. Khistyaev,  Jaehoon Kim,  P. Klunzinger,  Z. Koczor-Benda,  
 Joong Hoon Koh,  D. Kosenkov,  L. Koulias,  T. Kowalczyk,  C. M. Krauter,  
 K. Kue,  A. Kunitsa,  T. Kus,  A. Landau,  K. V. Lawler,  D. Lefrancois,  
 S. Lehtola,  Rain Li,  Yi-Pei Li,  Jiashu Liang,  M. Liebenthal,  
 Hung-Hsuan Lin,  You-Sheng Lin,  Fenglai Liu,  Kuan-Yu Liu,  
 M. Loipersberger,  A. Luenser,  A. Manjanath,  P. Manohar,  E. Mansoor,  
 S. F. Manzer,  Shan-Ping Mao,  A. V. Marenich,  T. Markovich,  S. Mason,  
 S. A. Maurer,  P. F. McLaughlin,  M. F. S. J. Menger,  J.-M. Mewes,  
 S. A. Mewes,  P. Morgante,  J. W. Mullinax,  K. J. Oosterbaan,  G. Paran,  
 Alexander C. Paul,  Suranjan K. Paul,  F. Pavosevic,  Zheng Pei,  S. Prager,  
 E. I. Proynov,  E. Ramos,  B. Rana,  A. E. Rask,  A. Rettig,  R. M. Richard,  
 F. Rob,  E. Rossomme,  T. Scheele,  M. Scheurer,  M. Schneider,  
 N. Sergueev,  S. M. Sharada,  W. Skomorowski,  D. W. Small,  C. J. Stein,  
 Yu-Chuan Su,  E. J. Sundstrom,  Zhen Tao,  J. Thirman,  T. Tsuchimochi,  
 N. M. Tubman,  S. P. Veccham,  O. Vydrov,  J. Wenzel,  J. Witte,  A. Yamada,  
 Kun Yao,  S. Yeganeh,  S. R. Yost,  A. Zech,  Igor Ying Zhang,  Xing Zhang,  
 Yu Zhang,  D. Zuev,  A. Aspuru-Guzik,  A. T. Bell,  N. A. Besley,  
 K. B. Bravaya,  B. R. Brooks,  D. Casanova,  Jeng-Da Chai,  S. Coriani,  
 C. J. Cramer,  A. E. DePrince, III,  R. A. DiStasio Jr.,  A. Dreuw,  
 B. D. Dunietz,  T. R. Furlani,  W. A. Goddard III,  S. Grimme,  
 S. Hammes-Schiffer,  T. Head-Gordon,  W. J. Hehre,  Chao-Ping Hsu,  
 T.-C. Jagau,  Yousung Jung,  A. Klamt,  Jing Kong,  D. S. Lambrecht,  
 WanZhen Liang,  N. J. Mayhall,  C. W. McCurdy,  J. B. Neaton,  T. Neudecker,  
 C. Ochsenfeld,  J. A. Parkhill,  R. Peverati,  V. A. Rassolov,  Yihan Shao,  
 L. V. Slipchenko,  R. P. Steele,  J. E. Subotnik,  A. J. W. Thom,  
 A. Tkatchenko,  D. G. Truhlar,  T. Van Voorhis,  T. A. Wesolowski,  
 K. B. Whaley,  H. L. Woodcock III,  P. M. Zimmerman,  S. Faraji,  
 P. M. W. Gill,  M. Head-Gordon,  J. M. Herbert,  A. I. Krylov

 Additional authors since Version 5.4.0: 
 Chandrima Chakravarty,  L. Cunha,  R. Kang,  Yongbin Kim,  S. Kotaru,  
 Shaozhi Li,  Xiangyuan Li,  F. Matz,  A. Molle,  V. Parravicini,  
 Haisheng Ren,  Hengyuan Shen,  Yingli Su,  Hung-Yi Tsai,  C. Utku,  
 Fang Wang,  Jeff Yang,  F. Zeller

 Contributors to earlier versions of Q-Chem not listed above: 
 R. D. Adamson,  B. Austin,  R. Baer,  J. Baker,  G. J. O. Beran,  
 K. Brandhorst,  S. T. Brown,  E. F. C. Byrd,  Arup K. Chakraborty,  
 G. K. L. Chan,  Chun-Min Chang,  Yunqing Chen,  C.-L. Cheng,  
 Siu Hung Chien,  D. M. Chipman,  D. L. Crittenden,  H. Dachsel,  
 R. J. Doerksen,  A. D. Dutoi,  R. G. Edgar,  J. Fosso-Tande,  
 L. Fusti-Molnar,  D. Ghosh,  A. Ghysels,  A. Golubeva-Zadorozhnaya,  
 J. Gonthier,  M. S. Gordon,  S. R. Gwaltney,  G. Hawkins,  J. E. Herr,  
 A. Heyden,  S. Hirata,  E. G. Hohenstein,  G. Kedziora,  F. J. Keil,  
 C. Kelley,  Jihan Kim,  R. A. King,  R. Z. Khaliullin,  P. P. Korambath,  
 W. Kurlancheek,  A. Laurent,  A. M. Lee,  M. S. Lee,  S. V. Levchenko,  
 Ching Yeh Lin,  D. Liotard,  E. Livshits,  R. C. Lochan,  I. Lotan,  
 L. A. Martinez-Martinez,  P. E. Maslen,  N. Nair,  D. P. O'Neill,  
 D. Neuhauser,  E. Neuscamman,  C. M. Oana,  R. Olivares-Amaya,  R. Olson,  
 T. M. Perrine,  B. Peters,  P. A. Pieniazek,  A. Prociuk,  Y. M. Rhee,  
 J. Ritchie,  M. A. Rohrdanz,  E. Rosta,  N. J. Russ,  H. F. Schaefer III,  
 M. W. Schmidt,  N. E. Schultz,  S. Sharma,  N. Shenvi,  C. D. Sherrill,  
 A. C. Simmonett,  A. Sodt,  T. Stein,  D. Stuck,  K. S. Thanthiriwatte,  
 V. Vanovschi,  L. Vogt,  Tao Wang,  A. Warshel,  M. A. Watson,  
 C. F. Williams,  Q. Wu,  X. Xu,  Jun Yang,  W. Zhang,  Yan Zhao

   Please cite Q-Chem as follows:
  "Software for the frontiers of quantum chemistry:
   An overview of developments in the Q-Chem 5 package"
   J. Chem. Phys. 155, 084801 (2021)
   https://doi.org/10.1063/5.0055522 (open access)

 Q-Chem 5.4.2 for Intel X86 EM64T Linux

 Parts of Q-Chem use Armadillo 9.900.5 (Nocturnal Misbehaviour).
 http://arma.sourceforge.net/

 Q-Chem begins on Fri Feb 28 08:40:24 2025  

 Host: 
0

     Scratch files written to /scratch/qchem116895//
 Dec1321 |scratch|qcdevops|jenkins|workspace|build_RNUM 5684   
 Processing $rem in /home/kchung25/qchem/5.4.0/config/preferences:
 Processing $rem in /home/kchung25/.qchemrc:

 Q-Chem warning in module libgen/rem_setup.C, line 3079:

 Neither GIA nor STOLL is specified by user. Use STOLL as the default


 Checking the input file for inconsistencies... 	...done.

--------------------------------------------------------------
User input:
--------------------------------------------------------------
$molecule
0 1
--
0 1
C    3.060548   0.177448  -0.313947
C    1.557544   0.097717  -0.349948
O    1.006369  -0.201892   0.920487
H    1.260914   0.482484   1.544879
H    3.465039   0.367849  -1.309744
H    3.485615  -0.755472   0.059941
H    3.394218   0.988890   0.339300
H    1.223902  -0.709173  -1.007567
H    1.127414   1.028827  -0.745162
--
0 1
C   -2.279661   1.073048   0.209358
C   -1.971739  -0.139988  -0.636391
O   -1.538721  -1.234613   0.124290
H   -0.733445  -0.967396   0.592167
H   -2.653636   1.899566  -0.399499
H   -1.379815   1.416192   0.728692
H   -3.030177   0.831048   0.964493
H   -1.231842   0.125953  -1.409958
H   -2.869521  -0.466075  -1.170188
$end

$rem
JOBTYPE          eda
EDA2             1
METHOD           wB97M-V
BASIS            def2-TZVPPD
SYMMETRY         false
MEM_TOTAL        50000
MEM_STATIC       10000
THRESH           14
SCF_CONVERGENCE  8
XC_GRID          000099000590
NL_GRID          1
EDA_CLS_DISP     true
FD_MAT_VEC_PROD  FALSE
$end
--------------------------------------------------------------
 ----------------------------------------------------------------
             Standard Nuclear Orientation (Angstroms)
    I     Atom           X                Y                Z
 ----------------------------------------------------------------
    1      C      -3.0605479546    -0.1774480529    -0.3139470434
    2      C      -1.5575439590    -0.0977169694    -0.3499480421
    3      O      -1.0063689653     0.2018918641     0.9204869999
    4      H      -1.2609139252    -0.4824842450     1.5448788966
    5      H      -3.4650389520    -0.3678489210    -1.3097440697
    6      H      -3.4856150003     0.7554718676     0.0599411030
    7      H      -3.3942179078    -0.9888901705     0.3392998345
    8      H      -1.2239020057     0.7091731489    -1.0075669206
    9      H      -1.1274139136    -1.0288268864    -0.7451621882
   10      C       2.2796610957    -1.0730478562     0.2093577801
   11      C       1.9717390266     0.1399882577    -0.6363910314
   12      O       1.5387209753     1.2346131184     0.1242901399
   13      H       0.7334449926     0.9673960048     0.5921671047
   14      H       2.6536361341    -1.8995657433    -0.3994993496
   15      H       1.3798151173    -1.4161919826     0.7286917340
   16      H       3.0301770886    -0.8310479332     0.9644928118
   17      H       1.2318420347    -0.1259526619    -1.4099580668
   18      H       2.8695210057     0.4660753863    -1.1701879878
 ----------------------------------------------------------------
 Molecular Point Group                 C1    NOp =  1
 Largest Abelian Subgroup              C1    NOp =  1
 Nuclear Repulsion Energy =         256.83514722 hartrees
 There are       26 alpha and       26 beta electrons
 Requested basis set is def2-TZVPPD
 There are 164 shells and 432 basis functions

 Q-Chem warning in module libmdc/get_mega.C, line 171:

 Allowed MEM_STATIC has been capped at MEM_STATIC=8191.
 Reduce the value of MEM_STATIC to silence this warning.


 Total QAlloc Memory Limit  50000 MB
 Mega-Array Size      8007 MB
 MEM_STATIC part      8191 MB
 A cutoff of  1.0D-14 yielded  12416 shell pairs
 There are     85676 function pairs (    105437 Cartesian)
 Smallest overlap matrix eigenvalue = 8.17E-06

 Scale SEOQF with 1.000000e-01/1.000000e-01/1.000000e-01

 Standard Electronic Orientation quadrupole field applied
 Nucleus-field energy     =     0.0000000077 hartrees

 -----------------------------------------------------------------------
  General SCF calculation program by
  Eric Jon Sundstrom, Paul Horn, Yuezhi Mao, Dmitri Zuev, Alec White,
  David Stuck, Shaama M.S., Shane Yost, Joonho Lee, David Small,
  Daniel Levine, Susi Lehtola, Hugh Burton, Evgeny Epifanovsky,
  Bang C. Huynh
 -----------------------------------------------------------------------
================================================================
                 ALMO-EDA with the EDA2 driver                  
================================================================
 The second-generation ALMO-EDA (for DFT):                      
 P. R. Horn, Y. Mao and M. Head-Gordon, PCCP, 18, 23067 (2016)  
 Y. Mao et al. Annu. Rev. Phys. Chem. 72, 641 (2021)            
 Decomposition of the frozen energy:                            
 P. R. Horn, Y. Mao and M. Head-Gordon, JCP, 144, 114107 (2016) 
 FERF model for polarization:                                   
 P. R. Horn and M. Head-Gordon, JCP, 143, 114111 (2015)         
================================================================
 Using eda2 option set 1
 Option set summary: Frozen orbital wavefunction, initial wavefunction decomposition, and nDQ polarization.
--------------------------------
Printing EDA Options
--------------------------------
eda_child_super_basis      0
fragmo_guess_mode          0
child_mp                   1
child_mp_orders            232
cls_elec                   1
cls_disp                   1
scfmi_mode                 1
scfmi_occs                 0
scfmi_virts                0
frz_relax                  0
frz_relax_method           0
dc_pen_start               0
dc_pen_conv                0
dc_pen_increment           0
dc_pen_steps               0
dc_pen_thresh_factor       0
dc_pen_pre_newton_thresh   0
frz_ortho_decomp           1
frz_ortho_decomp_conv      6
plot_mo_ortho_frz          0
frgm_method                2
scfmi_freeze_ss            0
separate_rehyb             0
plot_diff_den              0
eda_nocv                   0
eda_vct_relax              1
disp_free_x                0
disp_free_c                0
eda_bsse                   0
eda_pct_a                  0
eda_covp                   0
--------------------------------
Attempting to make child job directory: /scratch/qchem116895//Frg1/
Attempting to make child job directory: /scratch/qchem116895//Frg2/
Creating input file /scratch/qchem116895/Frg1.input
using default PutDataFrgm: nothing
calling putenv with: QCSCRATCH=/scratch/qchem116895/ 
Spawning Job For Fragment 0
Done Job For Fragment 0
calling putenv with: QCSCRATCH=/scratch 
calling putenv with: QCTHREADS=6 
Creating input file /scratch/qchem116895/Frg2.input
using default PutDataFrgm: nothing
calling putenv with: QCSCRATCH=/scratch/qchem116895/ 
Spawning Job For Fragment 1
Done Job For Fragment 1
calling putenv with: QCSCRATCH=/scratch 
calling putenv with: QCTHREADS=6 
Doing General SCFMI
 Exchange:     0.1500 Hartree-Fock + 1.0000 wB97M-V + LR-HF
 Correlation:  1.0000 wB97M-V
 Using Euler-Maclaurin-Lebedev (99,590) quadrature formula
 Nonlocal Correlation:  VV10 with C = 0.0100 and b = 6.00 and scale = 1.00000
 Grid used for NLC:  SG-1 standard quadrature
performing fock build before subrot guess so that all methods have access
Printing subrot_rss_gen Method Specification:
Occupied Subspace Method is 0
Virtual Subspace Method is 0
Energy of the unrelaxed supersystem initial determinant -310.062097319222
write pseudocanon occs and virts to disk
write pseudocanon orbital energies to disk
Tolerance of ortho_decomp_scf: 1.00e-06
GDM subspace size: 20
Beginning the Orthogonal Decomposition of the Initial Supersystem Wavefunction
    1    -310.0116056050      9.48e-02     ortho_decomp Preconditoned Steepest Descent
    2    -310.0180168458      2.02e-03     ortho_decomp BFGS Step
    3    -310.0180349873      1.60e-04     ortho_decomp BFGS Step
    4    -310.0180350144      5.33e-06     ortho_decomp BFGS Step
    5    -310.0180350144      1.38e-07     ortho_decomp 00000 Convergence criterion met
 Hartree-Fock
 Hartree-Fock
 Hartree-Fock
 Exchange:     0.1500 Hartree-Fock + 1.0000 wB97M-V + LR-HF
 Correlation:  1.0000 wB97M-V
 Using Euler-Maclaurin-Lebedev (99,590) quadrature formula
 Nonlocal Correlation:  VV10 with C = 0.0100 and b = 6.00 and scale = 1.00000
 Grid used for NLC:  SG-1 standard quadrature
 Long-range K will be added via erf
 Coulomb attenuation parameter = 0.3 bohr**(-1)
 Nonlocal correlation = 2.037965309495e-01
Doing General SCFMI
 Exchange:     0.1500 Hartree-Fock + 1.0000 wB97M-V + LR-HF
 Correlation:  1.0000 wB97M-V
 Using Euler-Maclaurin-Lebedev (99,590) quadrature formula
 Nonlocal Correlation:  VV10 with C = 0.0100 and b = 6.00 and scale = 1.00000
 Grid used for NLC:  SG-1 standard quadrature
performing fock build at end of subrot_r(subrot) constructor so that all methods have access
<S^2> of initial wavefunction before polarization iterations 0.0000000000
Beginning iterations for the determination of the polarized wavefunction
Energy prior to optimization (guess energy) = -310.062097319221
Begin Timing: Total SCF Calculation
begin iterations for algorithm: DIIS         
the SCF tolerance is set to 1.00e-08
    1    -310.0620973192      2.91e-04     00000 
    2    -310.0645231520      9.54e-05     00000 
    3    -310.0647299412      6.05e-05     00000 
    4    -310.0647849800      2.08e-05     00000 
    5    -310.0647954104      7.55e-06     00000 
    6    -310.0647983092      3.38e-06     00000 
    7    -310.0647988817      1.35e-06     00000 
    8    -310.0647989826      4.84e-07     00000 
    9    -310.0647989881      2.53e-07     00000 
   10    -310.0647989891      7.26e-08     00000 
   11    -310.0647989893      3.16e-08     00000 
   12    -310.0647989893      1.56e-08     00000 
   13    -310.0647989893      6.08e-09     00000 Convergence criterion met
write pseudocanon occs and virts to disk
write pseudocanon orbital energies to disk
Timing for Total SCF: 315.00s (wall), 1890.44s (cpu)
<S^2> of polarized wavefunction after polarization iterations 0.0000000000
relaxing scfmi constraint to allow all rotations in the entire AO span
Doing General SCFMI
 Exchange:     0.1500 Hartree-Fock + 1.0000 wB97M-V + LR-HF
 Correlation:  1.0000 wB97M-V
 Using Euler-Maclaurin-Lebedev (99,590) quadrature formula
 Nonlocal Correlation:  VV10 with C = 0.0100 and b = 6.00 and scale = 1.00000
 Grid used for NLC:  SG-1 standard quadrature
performing fock build at end of subrot_r(subrot) constructor so that all methods have access
<S^2> of polarized wavefunction before ct-allowed iterations 0.0000000000
Beginning iterations for the determination of the CT-Allowed wavefunction
Energy prior to optimization (guess energy) = -310.064798989275
Begin Timing: Total SCF Calculation
begin iterations for algorithm: DIIS         
the SCF tolerance is set to 1.00e-08
    1    -310.0647989893      1.69e-04     00000 
    2    -310.0677928018      2.41e-05     00000 
    3    -310.0678906219      9.59e-06     00000 
    4    -310.0678961868      4.93e-06     00000 
    5    -310.0678980048      4.57e-07     00000 
    6    -310.0678980395      2.32e-07     00000 
    7    -310.0678980463      4.84e-08     00000 
    8    -310.0678980467      1.93e-08     00000 
    9    -310.0678980467      8.26e-09     00000 Convergence criterion met
write pseudocanon occs and virts to disk
write pseudocanon orbital energies to disk
Timing for Total SCF: 211.00s (wall), 1263.69s (cpu)
<S^2> of ct_allowed wavefunction after ct-allowed iterations 0.0000000000

================================
        Results of EDA2         
================================
Basic EDA Quantities
--------------------
Fragment Energies (Ha):
1 -155.0294763633
2 -155.0291195462
--------------------
  E_prp (kJ/mol) = 0.0000
  E_frz (kJ/mol) = -9.1931
  E_pol (kJ/mol) = -7.0933
  E_vct (kJ/mol) = -8.1367
  E_int (kJ/mol) = -24.4231
--------------------


Decomposition of frozen interaction energy
--------------------
  --------------------
  Orthogonal Frozen Decomposition:
  --------------------
     E_elec   (ELEC)   (kJ/mol) = -76.3473
     E_pauli  (PAULI)  (kJ/mol) = 85.4695
     E_disp   (DISP)   (kJ/mol) = -18.3153
  --------------------
  Classical Frozen Decomposition:
  --------------------
     E_cls_elec  (CLS ELEC)  (kJ/mol) = -38.0900
     E_mod_pauli (MOD PAULI) (kJ/mol) = 44.5680 (FRZ - CLS ELEC - CLS DISP)
     E_cls_disp  (CLS DISP)  (kJ/mol) = -15.6710
  --------------------
--------------------

Simplified EDA Summary (kJ/mol)
--------------------
 PREPARATION      0.0000
 FROZEN           -9.1931 (ELEC + PAULI + DISP)
[ELEC + PAULI = 6.4780, DISP = -15.6710]
 POLARIZATION    -7.0933
 CHARGE TRANSFER -8.1367
 TOTAL           -24.4231     (PRP + FRZ + POL + CT)
--------------------
 
 --------------------------------------------------------------
 
                    Orbital Energies (a.u.)
 --------------------------------------------------------------
 
 Alpha MOs
 -- Occupied --
-19.3547 -19.3047 -10.4010 -10.3728 -10.3440 -10.3227  -1.1751  -1.1302
 -0.8863  -0.8583  -0.7584  -0.7269  -0.6345  -0.6068  -0.5770  -0.5577
 -0.5487  -0.5299  -0.4997  -0.4885  -0.4708  -0.4613  -0.4480  -0.4155
 -0.3952  -0.3604
 -- Virtual --
  0.0277   0.0504   0.0533   0.0651   0.0733   0.0835   0.0950   0.1022
  0.1145   0.1202   0.1296   0.1352   0.1395   0.1486   0.1536   0.1686
  0.1737   0.1821   0.1899   0.1975   0.2023   0.2026   0.2208   0.2251
  0.2315   0.2497   0.2511   0.2545   0.2601   0.2678   0.2745   0.2834
  0.2862   0.2927   0.2984   0.3065   0.3086   0.3121   0.3195   0.3215
  0.3265   0.3327   0.3368   0.3409   0.3465   0.3501   0.3520   0.3619
  0.3647   0.3692   0.3749   0.3802   0.3828   0.3881   0.3930   0.3949
  0.3989   0.4071   0.4175   0.4227   0.4385   0.4421   0.4443   0.4496
  0.4607   0.4656   0.4743   0.4750   0.4824   0.4865   0.4902   0.4914
  0.5027   0.5094   0.5231   0.5299   0.5369   0.5485   0.5513   0.5629
  0.5714   0.5795   0.5893   0.5994   0.6026   0.6157   0.6344   0.6427
  0.6537   0.6618   0.6704   0.6762   0.6765   0.6946   0.7041   0.7245
  0.7258   0.7315   0.7350   0.7366   0.7454   0.7517   0.7613   0.7670
  0.7686   0.7782   0.7913   0.7950   0.8006   0.8097   0.8263   0.8313
  0.8367   0.8467   0.8641   0.8681   0.8853   0.9004   0.9183   0.9343
  0.9488   0.9575   0.9623   0.9896   1.0001   1.0087   1.0367   1.0425
  1.0537   1.0618   1.0863   1.0941   1.1166   1.1282   1.1425   1.1663
  1.1779   1.1947   1.2062   1.2176   1.2243   1.2352   1.2395   1.2539
  1.2680   1.2864   1.2889   1.3007   1.3267   1.3292   1.3359   1.3581
  1.3617   1.3683   1.3821   1.3930   1.4003   1.4157   1.4484   1.4550
  1.4601   1.4830   1.4978   1.5159   1.5201   1.5438   1.5676   1.5712
  1.5985   1.6087   1.6216   1.6347   1.6490   1.6584   1.6682   1.6884
  1.6953   1.6979   1.7137   1.7251   1.7536   1.7606   1.7622   1.7755
  1.8140   1.8220   1.9192   1.9575   1.9633   1.9878   2.0263   2.0532
  2.0828   2.1156   2.1384   2.1673   2.1946   2.2262   2.2371   2.2728
  2.2871   2.3429   2.3522   2.3745   2.3971   2.4473   2.4603   2.4832
  2.4940   2.5729   2.6817   2.7050   2.7327   2.7807   2.8000   2.8156
  2.8302   2.8557   2.8671   2.8801   2.8990   2.9041   2.9186   2.9352
  2.9415   2.9462   2.9697   2.9837   3.0088   3.0196   3.0302   3.0493
  3.0630   3.0697   3.0854   3.1115   3.1205   3.1385   3.1551   3.1828
  3.1933   3.2105   3.2318   3.2484   3.2535   3.2609   3.2752   3.2895
  3.2980   3.3016   3.3104   3.3241   3.3299   3.3464   3.3696   3.3803
  3.4154   3.4190   3.4580   3.4697   3.4872   3.4982   3.5264   3.5503
  3.5706   3.5758   3.6004   3.6172   3.6321   3.6448   3.6862   3.6968
  3.7193   3.7305   3.7399   3.7451   3.7728   3.7851   3.7974   3.8167
  3.8258   3.8418   3.8639   3.9059   3.9243   3.9616   3.9742   3.9897
  3.9972   4.0174   4.0257   4.0451   4.0687   4.0866   4.1101   4.1173
  4.1282   4.1385   4.1706   4.1735   4.1778   4.1821   4.2001   4.2160
  4.2256   4.2362   4.2576   4.2629   4.2726   4.2866   4.2964   4.3180
  4.3527   4.3772   4.3783   4.3969   4.4310   4.4403   4.4632   4.4703
  4.4779   4.4907   4.5062   4.5261   4.5478   4.5597   4.6104   4.6337
  4.6891   4.6995   4.7096   4.7230   4.7319   4.7711   4.7885   4.8168
  4.8227   4.8333   4.9270   4.9504   4.9555   4.9637   4.9839   5.0040
  5.0373   5.0456   5.0654   5.1088   5.1366   5.1632   5.2101   5.2517
  5.2903   5.3043   5.3415   5.3846   5.3945   5.4083   5.4118   5.4298
  5.4343   5.4516   5.4759   5.4890   5.5146   5.5191   5.5694   5.5924
  5.6247   5.6362   5.6753   5.6806   5.7282   5.7425   5.7703   5.7765
  5.8034   5.8362   5.8927   5.9425   6.0927   6.1503   6.2904   6.3245
  6.6350   6.6882   6.8457   6.8726   6.8979   6.9453   7.0000   7.0190
  7.1005   7.1245   7.3798   7.4018   7.5437   7.6319   7.8068   7.8596
 23.7615  23.8504  24.0312  24.0704  44.7650  44.8515
 --------------------------------------------------------------
 
          Ground-State Mulliken Net Atomic Charges

     Atom                 Charge (a.u.)
  ----------------------------------------
      1 C                    -1.105279
      2 C                    -0.086790
      3 O                    -0.403490
      4 H                     0.116386
      5 H                     0.293288
      6 H                     0.283137
      7 H                     0.286381
      8 H                     0.305702
      9 H                     0.297646
     10 C                    -0.915283
     11 C                    -0.174043
     12 O                    -0.474827
     13 H                     0.278970
     14 H                     0.275068
     15 H                     0.205966
     16 H                     0.296638
     17 H                     0.228451
     18 H                     0.292077
  ----------------------------------------
  Sum of atomic charges =     0.000000

 -----------------------------------------------------------------
                    Cartesian Multipole Moments
 -----------------------------------------------------------------
    Charge (ESU x 10^10)
                 0.0000
    Dipole Moment (Debye)
         X      -2.4745      Y      -2.7865      Z      -0.2897
       Tot       3.7379
    Quadrupole Moments (Debye-Ang)
        XX     -38.9064     XY      -1.8656     YY     -43.9774
        XZ      -1.3332     YZ      -1.9328     ZZ     -38.5802
    Octopole Moments (Debye-Ang^2)
       XXX      -4.8477    XXY      -4.9039    XYY      -7.8318
       YYY      -0.2007    XXZ      -2.1940    XYZ       2.0548
       YYZ       1.5832    XZZ      -3.2502    YZZ      -1.0124
       ZZZ       8.3205
    Hexadecapole Moments (Debye-Ang^3)
      XXXX   -1106.6323   XXXY       0.8987   XXYY    -227.2410
      XYYY      -2.9491   YYYY    -197.4703   XXXZ     -10.0588
      XXYZ      -5.2691   XYYZ      -6.2341   YYYZ       1.7666
      XXZZ    -202.8496   XYZZ       7.4293   YYZZ     -53.7846
      XZZZ      -6.5841   YZZZ      -4.0057   ZZZZ    -133.0955
 -----------------------------------------------------------------
 Total job time:  1562.19s(wall), 5826.04s(cpu) 
 Fri Feb 28 09:06:26 2025

        *************************************************************
        *                                                           *
        *  Thank you very much for using Q-Chem.  Have a nice day.  *
        *                                                           *
        *************************************************************


