
Running Job 1 of 1 004_ethanol_dimer_57_almo.inp
qchem 004_ethanol_dimer_57_almo.inp_157867.0 /scratch/qchem157867/ 6
/home/kchung25/qchem/5.4.0/exe/qcprog.exe_s 004_ethanol_dimer_57_almo.inp_157867.0 /scratch/qchem157867/
                  Welcome to Q-Chem
     A Quantum Leap Into The Future Of Chemistry


 Q-Chem 5.4, Q-Chem, Inc., Pleasanton, CA (2021)

 E. Epifanovsky,  A. T. B. Gilbert,  Xintian Feng,  Joonho Lee,  Yuezhi Mao,  
 N. Mardirossian,  P. Pokhilko,  A. White,  M. Wormit,  M. P. Coons,  
 A. L. Dempwolff,  Zhengting Gan,  D. Hait,  P. R. Horn,  L. D. Jacobson,  
 I. Kaliman,  J. Kussmann,  A. W. Lange,  Ka Un Lao,  D. S. Levine,  Jie Liu,  
 S. C. McKenzie,  A. F. Morrison,  K. Nanda,  F. Plasser,  D. R. Rehn,  
 M. L. Vidal,  Zhi-Qiang You,  Ying Zhu,  B. Alam,  B. Albrecht,  
 A. Aldossary,  E. Alguire,  J. H. Andersen,  D. Barton,  K. Begam,  A. Behn,  
 Y. A. Bernard,  E. J. Berquist,  H. Burton,  A. Carreras,  K. Carter-Fenk,  
 Romit Chakraborty,  A. D. Chien,  K. D. Closser,  V. Cofer-Shabica,  
 S. Dasgupta,  Jia Deng,  M. de Wergifosse,  M. Diedenhofen,  Hainam Do,  
 S. Ehlert,  Po-Tung Fang,  S. Fatehi,  Qingguo Feng,  T. Friedhoff,  
 J. Gayvert,  Qinghui Ge,  G. Gidofalvi,  M. Goldey,  J. Gomes,  
 C. Gonzalez-Espinoza,  S. Gulania,  A. Gunina,  M. W. D. Hanson-Heine,  
 P. H. P. Harbach,  A. W. Hauser,  M. F. Herbst,  M. Hernandez Vera,  
 M. Hodecker,  Z. C. Holden,  S. Houck,  Xunkun Huang,  Kerwin Hui,  
 B. C. Huynh,  M. Ivanov,  Hyunjun Ji,  Hanjie Jiang,  B. Kaduk,  S. Kaehler,  
 K. Khistyaev,  Jaehoon Kim,  P. Klunzinger,  Z. Koczor-Benda,  
 Joong Hoon Koh,  D. Kosenkov,  L. Koulias,  T. Kowalczyk,  C. M. Krauter,  
 K. Kue,  A. Kunitsa,  T. Kus,  A. Landau,  K. V. Lawler,  D. Lefrancois,  
 S. Lehtola,  Rain Li,  Yi-Pei Li,  Jiashu Liang,  M. Liebenthal,  
 Hung-Hsuan Lin,  You-Sheng Lin,  Fenglai Liu,  Kuan-Yu Liu,  
 M. Loipersberger,  A. Luenser,  A. Manjanath,  P. Manohar,  E. Mansoor,  
 S. F. Manzer,  Shan-Ping Mao,  A. V. Marenich,  T. Markovich,  S. Mason,  
 S. A. Maurer,  P. F. McLaughlin,  M. F. S. J. Menger,  J.-M. Mewes,  
 S. A. Mewes,  P. Morgante,  J. W. Mullinax,  K. J. Oosterbaan,  G. Paran,  
 Alexander C. Paul,  Suranjan K. Paul,  F. Pavosevic,  Zheng Pei,  S. Prager,  
 E. I. Proynov,  E. Ramos,  B. Rana,  A. E. Rask,  A. Rettig,  R. M. Richard,  
 F. Rob,  E. Rossomme,  T. Scheele,  M. Scheurer,  M. Schneider,  
 N. Sergueev,  S. M. Sharada,  W. Skomorowski,  D. W. Small,  C. J. Stein,  
 Yu-Chuan Su,  E. J. Sundstrom,  Zhen Tao,  J. Thirman,  T. Tsuchimochi,  
 N. M. Tubman,  S. P. Veccham,  O. Vydrov,  J. Wenzel,  J. Witte,  A. Yamada,  
 Kun Yao,  S. Yeganeh,  S. R. Yost,  A. Zech,  Igor Ying Zhang,  Xing Zhang,  
 Yu Zhang,  D. Zuev,  A. Aspuru-Guzik,  A. T. Bell,  N. A. Besley,  
 K. B. Bravaya,  B. R. Brooks,  D. Casanova,  Jeng-Da Chai,  S. Coriani,  
 C. J. Cramer,  A. E. DePrince, III,  R. A. DiStasio Jr.,  A. Dreuw,  
 B. D. Dunietz,  T. R. Furlani,  W. A. Goddard III,  S. Grimme,  
 S. Hammes-Schiffer,  T. Head-Gordon,  W. J. Hehre,  Chao-Ping Hsu,  
 T.-C. Jagau,  Yousung Jung,  A. Klamt,  Jing Kong,  D. S. Lambrecht,  
 WanZhen Liang,  N. J. Mayhall,  C. W. McCurdy,  J. B. Neaton,  T. Neudecker,  
 C. Ochsenfeld,  J. A. Parkhill,  R. Peverati,  V. A. Rassolov,  Yihan Shao,  
 L. V. Slipchenko,  R. P. Steele,  J. E. Subotnik,  A. J. W. Thom,  
 A. Tkatchenko,  D. G. Truhlar,  T. Van Voorhis,  T. A. Wesolowski,  
 K. B. Whaley,  H. L. Woodcock III,  P. M. Zimmerman,  S. Faraji,  
 P. M. W. Gill,  M. Head-Gordon,  J. M. Herbert,  A. I. Krylov

 Additional authors since Version 5.4.0: 
 Chandrima Chakravarty,  L. Cunha,  R. Kang,  Yongbin Kim,  S. Kotaru,  
 Shaozhi Li,  Xiangyuan Li,  F. Matz,  A. Molle,  V. Parravicini,  
 Haisheng Ren,  Hengyuan Shen,  Yingli Su,  Hung-Yi Tsai,  C. Utku,  
 Fang Wang,  Jeff Yang,  F. Zeller

 Contributors to earlier versions of Q-Chem not listed above: 
 R. D. Adamson,  B. Austin,  R. Baer,  J. Baker,  G. J. O. Beran,  
 K. Brandhorst,  S. T. Brown,  E. F. C. Byrd,  Arup K. Chakraborty,  
 G. K. L. Chan,  Chun-Min Chang,  Yunqing Chen,  C.-L. Cheng,  
 Siu Hung Chien,  D. M. Chipman,  D. L. Crittenden,  H. Dachsel,  
 R. J. Doerksen,  A. D. Dutoi,  R. G. Edgar,  J. Fosso-Tande,  
 L. Fusti-Molnar,  D. Ghosh,  A. Ghysels,  A. Golubeva-Zadorozhnaya,  
 J. Gonthier,  M. S. Gordon,  S. R. Gwaltney,  G. Hawkins,  J. E. Herr,  
 A. Heyden,  S. Hirata,  E. G. Hohenstein,  G. Kedziora,  F. J. Keil,  
 C. Kelley,  Jihan Kim,  R. A. King,  R. Z. Khaliullin,  P. P. Korambath,  
 W. Kurlancheek,  A. Laurent,  A. M. Lee,  M. S. Lee,  S. V. Levchenko,  
 Ching Yeh Lin,  D. Liotard,  E. Livshits,  R. C. Lochan,  I. Lotan,  
 L. A. Martinez-Martinez,  P. E. Maslen,  N. Nair,  D. P. O'Neill,  
 D. Neuhauser,  E. Neuscamman,  C. M. Oana,  R. Olivares-Amaya,  R. Olson,  
 T. M. Perrine,  B. Peters,  P. A. Pieniazek,  A. Prociuk,  Y. M. Rhee,  
 J. Ritchie,  M. A. Rohrdanz,  E. Rosta,  N. J. Russ,  H. F. Schaefer III,  
 M. W. Schmidt,  N. E. Schultz,  S. Sharma,  N. Shenvi,  C. D. Sherrill,  
 A. C. Simmonett,  A. Sodt,  T. Stein,  D. Stuck,  K. S. Thanthiriwatte,  
 V. Vanovschi,  L. Vogt,  Tao Wang,  A. Warshel,  M. A. Watson,  
 C. F. Williams,  Q. Wu,  X. Xu,  Jun Yang,  W. Zhang,  Yan Zhao

   Please cite Q-Chem as follows:
  "Software for the frontiers of quantum chemistry:
   An overview of developments in the Q-Chem 5 package"
   J. Chem. Phys. 155, 084801 (2021)
   https://doi.org/10.1063/5.0055522 (open access)

 Q-Chem 5.4.2 for Intel X86 EM64T Linux

 Parts of Q-Chem use Armadillo 9.900.5 (Nocturnal Misbehaviour).
 http://arma.sourceforge.net/

 Q-Chem begins on Fri Feb 28 23:28:43 2025  

 Host: 
0

     Scratch files written to /scratch/qchem157867//
 Dec1321 |scratch|qcdevops|jenkins|workspace|build_RNUM 5684   
 Processing $rem in /home/kchung25/qchem/5.4.0/config/preferences:
 Processing $rem in /home/kchung25/.qchemrc:

 Q-Chem warning in module libgen/rem_setup.C, line 3079:

 Neither GIA nor STOLL is specified by user. Use STOLL as the default


 Checking the input file for inconsistencies... 	...done.

--------------------------------------------------------------
User input:
--------------------------------------------------------------
$molecule
0 1
--
0 1
C   -1.963748   1.265020   0.028353
C   -2.365107  -0.173974   0.233460
O   -1.621145  -1.064613  -0.568591
H   -1.732855  -0.809637  -1.488026
H   -2.544648   1.931845   0.668723
H   -2.132959   1.572447  -1.008276
H   -0.904374   1.406432   0.254396
H   -3.443328  -0.299177   0.059353
H   -2.177816  -0.477973   1.267136
--
0 1
C    1.310325  -0.415454   1.080624
C    1.739443  -0.185319  -0.339788
O    2.987505   0.473444  -0.322679
H    3.279455   0.612922  -1.225116
H    0.352608  -0.937769   1.101386
H    1.209457   0.535502   1.609213
H    2.051543  -1.016275   1.610802
H    0.982179   0.415920  -0.865441
H    1.804386  -1.146516  -0.869892
$end

$rem
JOBTYPE          eda
EDA2             1
METHOD           wB97M-V
BASIS            def2-TZVPPD
SYMMETRY         false
MEM_TOTAL        50000
MEM_STATIC       10000
THRESH           14
SCF_CONVERGENCE  8
XC_GRID          000099000590
NL_GRID          1
EDA_CLS_DISP     true
FD_MAT_VEC_PROD  FALSE
$end
--------------------------------------------------------------
 ----------------------------------------------------------------
             Standard Nuclear Orientation (Angstroms)
    I     Atom           X                Y                Z
 ----------------------------------------------------------------
    1      C       1.9637482318    -1.2650197014     0.0283524047
    2      C       2.3651070872     0.1739741982     0.2334603925
    3      O       1.6211450454     1.0646136678    -0.5685900473
    4      H       1.7328551165     0.8096382962    -1.4880252129
    5      H       2.5446482610    -1.9318450776     0.6687219865
    6      H       2.1329593138    -1.5724459890    -1.0082767932
    7      H       0.9043742334    -1.4064319521     0.2543952552
    8      H       3.4433280844     0.2991774157     0.0593535321
    9      H       2.1778160056     0.4779724860     1.2671365871
   10      C      -1.3103249789     0.4154532862     1.0806243656
   11      C      -1.7394428844     0.1853192008    -0.3397878111
   12      O      -2.9875048239    -0.4734439270    -0.3226793180
   13      H      -3.2794547645    -0.6129213477    -1.2251164268
   14      H      -0.3526080287     0.9377683616     1.1013867659
   15      H      -1.2094569175    -0.5355030596     1.6092127317
   16      H      -2.0515430622     1.0162738609     1.6108027313
   17      H      -0.9821788013    -0.4159193753    -0.8654411762
   18      H      -1.8043859467     1.1465165511    -0.8698911685
 ----------------------------------------------------------------
 Molecular Point Group                 C1    NOp =  1
 Largest Abelian Subgroup              C1    NOp =  1
 Nuclear Repulsion Energy =         250.68291614 hartrees
 There are       26 alpha and       26 beta electrons
 Requested basis set is def2-TZVPPD
 There are 164 shells and 432 basis functions

 Q-Chem warning in module libmdc/get_mega.C, line 171:

 Allowed MEM_STATIC has been capped at MEM_STATIC=8191.
 Reduce the value of MEM_STATIC to silence this warning.


 Total QAlloc Memory Limit  50000 MB
 Mega-Array Size      8007 MB
 MEM_STATIC part      8191 MB
 A cutoff of  1.0D-14 yielded  12436 shell pairs
 There are     85776 function pairs (    105529 Cartesian)
 Smallest overlap matrix eigenvalue = 7.19E-06

 Scale SEOQF with 1.000000e-01/1.000000e-01/1.000000e-01

 Standard Electronic Orientation quadrupole field applied
 Nucleus-field energy     =     0.0000000079 hartrees

 -----------------------------------------------------------------------
  General SCF calculation program by
  Eric Jon Sundstrom, Paul Horn, Yuezhi Mao, Dmitri Zuev, Alec White,
  David Stuck, Shaama M.S., Shane Yost, Joonho Lee, David Small,
  Daniel Levine, Susi Lehtola, Hugh Burton, Evgeny Epifanovsky,
  Bang C. Huynh
 -----------------------------------------------------------------------
================================================================
                 ALMO-EDA with the EDA2 driver                  
================================================================
 The second-generation ALMO-EDA (for DFT):                      
 P. R. Horn, Y. Mao and M. Head-Gordon, PCCP, 18, 23067 (2016)  
 Y. Mao et al. Annu. Rev. Phys. Chem. 72, 641 (2021)            
 Decomposition of the frozen energy:                            
 P. R. Horn, Y. Mao and M. Head-Gordon, JCP, 144, 114107 (2016) 
 FERF model for polarization:                                   
 P. R. Horn and M. Head-Gordon, JCP, 143, 114111 (2015)         
================================================================
 Using eda2 option set 1
 Option set summary: Frozen orbital wavefunction, initial wavefunction decomposition, and nDQ polarization.
--------------------------------
Printing EDA Options
--------------------------------
eda_child_super_basis      0
fragmo_guess_mode          0
child_mp                   1
child_mp_orders            232
cls_elec                   1
cls_disp                   1
scfmi_mode                 1
scfmi_occs                 0
scfmi_virts                0
frz_relax                  0
frz_relax_method           0
dc_pen_start               0
dc_pen_conv                0
dc_pen_increment           0
dc_pen_steps               0
dc_pen_thresh_factor       0
dc_pen_pre_newton_thresh   0
frz_ortho_decomp           1
frz_ortho_decomp_conv      6
plot_mo_ortho_frz          0
frgm_method                2
scfmi_freeze_ss            0
separate_rehyb             0
plot_diff_den              0
eda_nocv                   0
eda_vct_relax              1
disp_free_x                0
disp_free_c                0
eda_bsse                   0
eda_pct_a                  0
eda_covp                   0
--------------------------------
Attempting to make child job directory: /scratch/qchem157867//Frg1/
Attempting to make child job directory: /scratch/qchem157867//Frg2/
Creating input file /scratch/qchem157867/Frg1.input
using default PutDataFrgm: nothing
calling putenv with: QCSCRATCH=/scratch/qchem157867/ 
Spawning Job For Fragment 0
Done Job For Fragment 0
calling putenv with: QCSCRATCH=/scratch 
calling putenv with: QCTHREADS=6 
Creating input file /scratch/qchem157867/Frg2.input
using default PutDataFrgm: nothing
calling putenv with: QCSCRATCH=/scratch/qchem157867/ 
Spawning Job For Fragment 1
Done Job For Fragment 1
calling putenv with: QCSCRATCH=/scratch 
calling putenv with: QCTHREADS=6 
Doing General SCFMI
 Exchange:     0.1500 Hartree-Fock + 1.0000 wB97M-V + LR-HF
 Correlation:  1.0000 wB97M-V
 Using Euler-Maclaurin-Lebedev (99,590) quadrature formula
 Nonlocal Correlation:  VV10 with C = 0.0100 and b = 6.00 and scale = 1.00000
 Grid used for NLC:  SG-1 standard quadrature
performing fock build before subrot guess so that all methods have access
Printing subrot_rss_gen Method Specification:
Occupied Subspace Method is 0
Virtual Subspace Method is 0
Energy of the unrelaxed supersystem initial determinant -310.060677259191
write pseudocanon occs and virts to disk
write pseudocanon orbital energies to disk
Tolerance of ortho_decomp_scf: 1.00e-06
GDM subspace size: 20
Beginning the Orthogonal Decomposition of the Initial Supersystem Wavefunction
    1    -310.0390762561      5.26e-02     ortho_decomp Preconditoned Steepest Descent
    2    -310.0424194284      1.68e-03     ortho_decomp BFGS Step
    3    -310.0424350557      1.09e-04     ortho_decomp BFGS Step
    4    -310.0424350696      4.13e-06     ortho_decomp BFGS Step
    5    -310.0424350697      1.86e-07     ortho_decomp 00000 Convergence criterion met
 Hartree-Fock
 Hartree-Fock
 Hartree-Fock
 Exchange:     0.1500 Hartree-Fock + 1.0000 wB97M-V + LR-HF
 Correlation:  1.0000 wB97M-V
 Using Euler-Maclaurin-Lebedev (99,590) quadrature formula
 Nonlocal Correlation:  VV10 with C = 0.0100 and b = 6.00 and scale = 1.00000
 Grid used for NLC:  SG-1 standard quadrature
 Long-range K will be added via erf
 Coulomb attenuation parameter = 0.3 bohr**(-1)
 Nonlocal correlation = 2.042363858865e-01
Doing General SCFMI
 Exchange:     0.1500 Hartree-Fock + 1.0000 wB97M-V + LR-HF
 Correlation:  1.0000 wB97M-V
 Using Euler-Maclaurin-Lebedev (99,590) quadrature formula
 Nonlocal Correlation:  VV10 with C = 0.0100 and b = 6.00 and scale = 1.00000
 Grid used for NLC:  SG-1 standard quadrature
performing fock build at end of subrot_r(subrot) constructor so that all methods have access
<S^2> of initial wavefunction before polarization iterations 0.0000000000
Beginning iterations for the determination of the polarized wavefunction
Energy prior to optimization (guess energy) = -310.060677259191
Begin Timing: Total SCF Calculation
begin iterations for algorithm: DIIS         
the SCF tolerance is set to 1.00e-08
    1    -310.0606772592      1.30e-04     00000 
    2    -310.0611455027      5.41e-05     00000 
    3    -310.0611874001      2.96e-05     00000 
    4    -310.0611993635      9.63e-06     00000 
    5    -310.0612008565      2.78e-06     00000 
    6    -310.0612011040      1.21e-06     00000 
    7    -310.0612011581      4.23e-07     00000 
    8    -310.0612011677      1.32e-07     00000 
    9    -310.0612011683      6.23e-08     00000 
   10    -310.0612011684      2.71e-08     00000 
   11    -310.0612011684      1.03e-08     00000 
   12    -310.0612011684      4.67e-09     00000 Convergence criterion met
write pseudocanon occs and virts to disk
write pseudocanon orbital energies to disk
Timing for Total SCF: 286.00s (wall), 1719.48s (cpu)
<S^2> of polarized wavefunction after polarization iterations 0.0000000000
relaxing scfmi constraint to allow all rotations in the entire AO span
Doing General SCFMI
 Exchange:     0.1500 Hartree-Fock + 1.0000 wB97M-V + LR-HF
 Correlation:  1.0000 wB97M-V
 Using Euler-Maclaurin-Lebedev (99,590) quadrature formula
 Nonlocal Correlation:  VV10 with C = 0.0100 and b = 6.00 and scale = 1.00000
 Grid used for NLC:  SG-1 standard quadrature
performing fock build at end of subrot_r(subrot) constructor so that all methods have access
<S^2> of polarized wavefunction before ct-allowed iterations 0.0000000000
Beginning iterations for the determination of the CT-Allowed wavefunction
Energy prior to optimization (guess energy) = -310.061201168420
Begin Timing: Total SCF Calculation
begin iterations for algorithm: DIIS         
the SCF tolerance is set to 1.00e-08
    1    -310.0612011684      8.48e-05     00000 
    2    -310.0619221019      9.51e-06     00000 
    3    -310.0619418481      2.13e-06     00000 
    4    -310.0619422830      1.78e-06     00000 
    5    -310.0619424961      2.25e-07     00000 
    6    -310.0619425013      8.97e-08     00000 
    7    -310.0619425023      1.94e-08     00000 
    8    -310.0619425023      4.76e-09     00000 Convergence criterion met
write pseudocanon occs and virts to disk
write pseudocanon orbital energies to disk
Timing for Total SCF: 184.00s (wall), 1105.00s (cpu)
<S^2> of ct_allowed wavefunction after ct-allowed iterations 0.0000000000

================================
        Results of EDA2         
================================
Basic EDA Quantities
--------------------
Fragment Energies (Ha):
1 -155.0294367896
2 -155.0295575325
--------------------
  E_prp (kJ/mol) = 0.0000
  E_frz (kJ/mol) = -4.4186
  E_pol (kJ/mol) = -1.3755
  E_vct (kJ/mol) = -1.9464
  E_int (kJ/mol) = -7.7405
--------------------


Decomposition of frozen interaction energy
--------------------
  --------------------
  Orthogonal Frozen Decomposition:
  --------------------
     E_elec   (ELEC)   (kJ/mol) = -23.2230
     E_pauli  (PAULI)  (kJ/mol) = 33.1967
     E_disp   (DISP)   (kJ/mol) = -14.3923
  --------------------
  Classical Frozen Decomposition:
  --------------------
     E_cls_elec  (CLS ELEC)  (kJ/mol) = -8.8046
     E_mod_pauli (MOD PAULI) (kJ/mol) = 16.9279 (FRZ - CLS ELEC - CLS DISP)
     E_cls_disp  (CLS DISP)  (kJ/mol) = -12.5419
  --------------------
--------------------

Simplified EDA Summary (kJ/mol)
--------------------
 PREPARATION      0.0000
 FROZEN           -4.4186 (ELEC + PAULI + DISP)
[ELEC + PAULI = 8.1233, DISP = -12.5419]
 POLARIZATION    -1.3755
 CHARGE TRANSFER -1.9464
 TOTAL           -7.7405     (PRP + FRZ + POL + CT)
--------------------
 
 --------------------------------------------------------------
 
                    Orbital Energies (a.u.)
 --------------------------------------------------------------
 
 Alpha MOs
 -- Occupied --
-19.3368 -19.3253 -10.3908 -10.3784 -10.3370 -10.3179  -1.1587  -1.1466
 -0.8766  -0.8650  -0.7475  -0.7179  -0.6274  -0.6180  -0.5703  -0.5684
 -0.5494  -0.5051  -0.4908  -0.4811  -0.4692  -0.4588  -0.4334  -0.4294
 -0.3868  -0.3712
 -- Virtual --
  0.0304   0.0451   0.0536   0.0563   0.0727   0.0851   0.0909   0.0983
  0.1135   0.1142   0.1264   0.1319   0.1423   0.1504   0.1598   0.1686
  0.1725   0.1790   0.1859   0.1946   0.2017   0.2137   0.2163   0.2291
  0.2331   0.2400   0.2539   0.2641   0.2670   0.2706   0.2774   0.2852
  0.2876   0.2946   0.2972   0.3055   0.3079   0.3161   0.3181   0.3229
  0.3274   0.3326   0.3363   0.3429   0.3486   0.3540   0.3581   0.3583
  0.3646   0.3684   0.3763   0.3782   0.3871   0.3931   0.4016   0.4063
  0.4122   0.4164   0.4264   0.4381   0.4399   0.4455   0.4514   0.4534
  0.4594   0.4657   0.4705   0.4779   0.4918   0.4956   0.5027   0.5084
  0.5159   0.5193   0.5279   0.5386   0.5423   0.5460   0.5516   0.5603
  0.5658   0.5823   0.5853   0.6005   0.6097   0.6180   0.6248   0.6365
  0.6493   0.6661   0.6757   0.6787   0.6846   0.6979   0.7008   0.7151
  0.7233   0.7320   0.7383   0.7472   0.7494   0.7550   0.7617   0.7658
  0.7756   0.7802   0.7836   0.7960   0.8008   0.8109   0.8205   0.8244
  0.8299   0.8413   0.8566   0.8580   0.8919   0.8969   0.9192   0.9228
  0.9427   0.9459   0.9830   0.9848   1.0093   1.0147   1.0247   1.0407
  1.0459   1.0519   1.0748   1.0897   1.1048   1.1256   1.1588   1.1697
  1.1834   1.1896   1.2067   1.2207   1.2228   1.2312   1.2488   1.2603
  1.2702   1.2780   1.2842   1.2984   1.3069   1.3137   1.3342   1.3434
  1.3591   1.3684   1.3953   1.3999   1.4114   1.4128   1.4279   1.4489
  1.4616   1.4773   1.4847   1.4914   1.5178   1.5229   1.5445   1.5522
  1.5935   1.5997   1.6171   1.6527   1.6636   1.6722   1.6777   1.6901
  1.7014   1.7169   1.7241   1.7436   1.7461   1.7690   1.7808   1.7982
  1.8313   1.8488   1.9407   1.9641   1.9891   2.0193   2.0385   2.0469
  2.0536   2.1126   2.1148   2.1561   2.1625   2.1955   2.2283   2.2698
  2.2927   2.2948   2.3438   2.3605   2.3958   2.4102   2.4331   2.4693
  2.4842   2.5417   2.6935   2.7123   2.7301   2.7531   2.7720   2.8228
  2.8336   2.8676   2.8777   2.8860   2.8948   2.9138   2.9239   2.9378
  2.9605   2.9670   2.9837   3.0021   3.0110   3.0274   3.0356   3.0501
  3.0578   3.0612   3.0899   3.1001   3.1331   3.1441   3.1746   3.1797
  3.1845   3.2263   3.2323   3.2403   3.2493   3.2621   3.2665   3.2775
  3.3007   3.3039   3.3120   3.3251   3.3408   3.3563   3.3654   3.3857
  3.4242   3.4408   3.4534   3.4778   3.4960   3.5228   3.5285   3.5678
  3.5692   3.5879   3.5909   3.6020   3.6208   3.6250   3.6491   3.6786
  3.7061   3.7200   3.7334   3.7468   3.7515   3.7718   3.7909   3.8080
  3.8185   3.8442   3.8730   3.9101   3.9317   3.9431   3.9984   4.0075
  4.0209   4.0319   4.0382   4.0469   4.0553   4.0669   4.1063   4.1142
  4.1285   4.1370   4.1529   4.1552   4.1667   4.1935   4.2009   4.2135
  4.2330   4.2431   4.2526   4.2856   4.2881   4.2946   4.3115   4.3301
  4.3414   4.3525   4.3828   4.3947   4.4101   4.4270   4.4597   4.4774
  4.4850   4.5108   4.5197   4.5382   4.5455   4.5684   4.5927   4.6394
  4.6793   4.6893   4.6944   4.6966   4.7221   4.7398   4.8099   4.8365
  4.8517   4.8809   4.9351   4.9467   4.9628   4.9709   4.9954   4.9991
  5.0342   5.0367   5.0564   5.0622   5.1243   5.1423   5.2289   5.2738
  5.3003   5.3017   5.3327   5.3463   5.4210   5.4295   5.4312   5.4398
  5.4450   5.4534   5.4754   5.4929   5.5095   5.5571   5.5765   5.5932
  5.6169   5.6552   5.6610   5.6773   5.7386   5.7431   5.7844   5.8096
  5.8195   5.8506   5.9032   5.9689   6.1133   6.1252   6.2556   6.2994
  6.6675   6.6845   6.8252   6.8336   6.8874   6.8878   6.9528   6.9805
  7.0520   7.0905   7.3673   7.3786   7.5612   7.5660   7.7819   7.7882
 23.7500  23.8012  24.0498  24.1186  44.7504  44.8514
 --------------------------------------------------------------
 
          Ground-State Mulliken Net Atomic Charges

     Atom                 Charge (a.u.)
  ----------------------------------------
      1 C                    -0.827598
      2 C                    -0.278588
      3 O                    -0.351680
      4 H                     0.125386
      5 H                     0.323840
      6 H                     0.263046
      7 H                     0.164956
      8 H                     0.338068
      9 H                     0.240037
     10 C                    -0.951516
     11 C                    -0.067282
     12 O                    -0.395193
     13 H                     0.122106
     14 H                     0.215458
     15 H                     0.251079
     16 H                     0.332395
     17 H                     0.213270
     18 H                     0.282217
  ----------------------------------------
  Sum of atomic charges =     0.000000

 -----------------------------------------------------------------
                    Cartesian Multipole Moments
 -----------------------------------------------------------------
    Charge (ESU x 10^10)
                -0.0000
    Dipole Moment (Debye)
         X       1.8739      Y      -0.8155      Z      -1.7895
       Tot       2.7164
    Quadrupole Moments (Debye-Ang)
        XX     -41.6733     XY      -3.0992     YY     -43.5243
        XZ       3.4709     YZ       0.8008     ZZ     -35.3119
    Octopole Moments (Debye-Ang^2)
       XXX      17.0264    XXY      -0.0478    XYY      -4.5973
       YYY      -0.6662    XXZ     -19.2368    XYZ      -3.8212
       YYZ      -0.9401    XZZ      -3.8857    YZZ       1.2016
       ZZZ     -14.2501
    Hexadecapole Moments (Debye-Ang^3)
      XXXX   -1118.8632   XXXY       7.4911   XXYY    -225.0555
      XYYY       2.1189   YYYY    -219.3891   XXXZ      54.4100
      XXYZ      10.4133   XYYZ       5.3958   YYYZ      -1.4980
      XXZZ    -171.9072   XYZZ      11.7305   YYZZ     -58.0944
      XZZZ       4.0641   YZZZ      -3.5649   ZZZZ    -150.8388
 -----------------------------------------------------------------
 Total job time:  1499.28s(wall), 5491.78s(cpu) 
 Fri Feb 28 23:53:42 2025

        *************************************************************
        *                                                           *
        *  Thank you very much for using Q-Chem.  Have a nice day.  *
        *                                                           *
        *************************************************************


