
Running Job 1 of 1 004_ethanol_dimer_52_almo.inp
qchem 004_ethanol_dimer_52_almo.inp_152156.0 /scratch/qchem152156/ 6
/home/kchung25/qchem/5.4.0/exe/qcprog.exe_s 004_ethanol_dimer_52_almo.inp_152156.0 /scratch/qchem152156/
                  Welcome to Q-Chem
     A Quantum Leap Into The Future Of Chemistry


 Q-Chem 5.4, Q-Chem, Inc., Pleasanton, CA (2021)

 E. Epifanovsky,  A. T. B. Gilbert,  Xintian Feng,  Joonho Lee,  Yuezhi Mao,  
 N. Mardirossian,  P. Pokhilko,  A. White,  M. Wormit,  M. P. Coons,  
 A. L. Dempwolff,  Zhengting Gan,  D. Hait,  P. R. Horn,  L. D. Jacobson,  
 I. Kaliman,  J. Kussmann,  A. W. Lange,  Ka Un Lao,  D. S. Levine,  Jie Liu,  
 S. C. McKenzie,  A. F. Morrison,  K. Nanda,  F. Plasser,  D. R. Rehn,  
 M. L. Vidal,  Zhi-Qiang You,  Ying Zhu,  B. Alam,  B. Albrecht,  
 A. Aldossary,  E. Alguire,  J. H. Andersen,  D. Barton,  K. Begam,  A. Behn,  
 Y. A. Bernard,  E. J. Berquist,  H. Burton,  A. Carreras,  K. Carter-Fenk,  
 Romit Chakraborty,  A. D. Chien,  K. D. Closser,  V. Cofer-Shabica,  
 S. Dasgupta,  Jia Deng,  M. de Wergifosse,  M. Diedenhofen,  Hainam Do,  
 S. Ehlert,  Po-Tung Fang,  S. Fatehi,  Qingguo Feng,  T. Friedhoff,  
 J. Gayvert,  Qinghui Ge,  G. Gidofalvi,  M. Goldey,  J. Gomes,  
 C. Gonzalez-Espinoza,  S. Gulania,  A. Gunina,  M. W. D. Hanson-Heine,  
 P. H. P. Harbach,  A. W. Hauser,  M. F. Herbst,  M. Hernandez Vera,  
 M. Hodecker,  Z. C. Holden,  S. Houck,  Xunkun Huang,  Kerwin Hui,  
 B. C. Huynh,  M. Ivanov,  Hyunjun Ji,  Hanjie Jiang,  B. Kaduk,  S. Kaehler,  
 K. Khistyaev,  Jaehoon Kim,  P. Klunzinger,  Z. Koczor-Benda,  
 Joong Hoon Koh,  D. Kosenkov,  L. Koulias,  T. Kowalczyk,  C. M. Krauter,  
 K. Kue,  A. Kunitsa,  T. Kus,  A. Landau,  K. V. Lawler,  D. Lefrancois,  
 S. Lehtola,  Rain Li,  Yi-Pei Li,  Jiashu Liang,  M. Liebenthal,  
 Hung-Hsuan Lin,  You-Sheng Lin,  Fenglai Liu,  Kuan-Yu Liu,  
 M. Loipersberger,  A. Luenser,  A. Manjanath,  P. Manohar,  E. Mansoor,  
 S. F. Manzer,  Shan-Ping Mao,  A. V. Marenich,  T. Markovich,  S. Mason,  
 S. A. Maurer,  P. F. McLaughlin,  M. F. S. J. Menger,  J.-M. Mewes,  
 S. A. Mewes,  P. Morgante,  J. W. Mullinax,  K. J. Oosterbaan,  G. Paran,  
 Alexander C. Paul,  Suranjan K. Paul,  F. Pavosevic,  Zheng Pei,  S. Prager,  
 E. I. Proynov,  E. Ramos,  B. Rana,  A. E. Rask,  A. Rettig,  R. M. Richard,  
 F. Rob,  E. Rossomme,  T. Scheele,  M. Scheurer,  M. Schneider,  
 N. Sergueev,  S. M. Sharada,  W. Skomorowski,  D. W. Small,  C. J. Stein,  
 Yu-Chuan Su,  E. J. Sundstrom,  Zhen Tao,  J. Thirman,  T. Tsuchimochi,  
 N. M. Tubman,  S. P. Veccham,  O. Vydrov,  J. Wenzel,  J. Witte,  A. Yamada,  
 Kun Yao,  S. Yeganeh,  S. R. Yost,  A. Zech,  Igor Ying Zhang,  Xing Zhang,  
 Yu Zhang,  D. Zuev,  A. Aspuru-Guzik,  A. T. Bell,  N. A. Besley,  
 K. B. Bravaya,  B. R. Brooks,  D. Casanova,  Jeng-Da Chai,  S. Coriani,  
 C. J. Cramer,  A. E. DePrince, III,  R. A. DiStasio Jr.,  A. Dreuw,  
 B. D. Dunietz,  T. R. Furlani,  W. A. Goddard III,  S. Grimme,  
 S. Hammes-Schiffer,  T. Head-Gordon,  W. J. Hehre,  Chao-Ping Hsu,  
 T.-C. Jagau,  Yousung Jung,  A. Klamt,  Jing Kong,  D. S. Lambrecht,  
 WanZhen Liang,  N. J. Mayhall,  C. W. McCurdy,  J. B. Neaton,  T. Neudecker,  
 C. Ochsenfeld,  J. A. Parkhill,  R. Peverati,  V. A. Rassolov,  Yihan Shao,  
 L. V. Slipchenko,  R. P. Steele,  J. E. Subotnik,  A. J. W. Thom,  
 A. Tkatchenko,  D. G. Truhlar,  T. Van Voorhis,  T. A. Wesolowski,  
 K. B. Whaley,  H. L. Woodcock III,  P. M. Zimmerman,  S. Faraji,  
 P. M. W. Gill,  M. Head-Gordon,  J. M. Herbert,  A. I. Krylov

 Additional authors since Version 5.4.0: 
 Chandrima Chakravarty,  L. Cunha,  R. Kang,  Yongbin Kim,  S. Kotaru,  
 Shaozhi Li,  Xiangyuan Li,  F. Matz,  A. Molle,  V. Parravicini,  
 Haisheng Ren,  Hengyuan Shen,  Yingli Su,  Hung-Yi Tsai,  C. Utku,  
 Fang Wang,  Jeff Yang,  F. Zeller

 Contributors to earlier versions of Q-Chem not listed above: 
 R. D. Adamson,  B. Austin,  R. Baer,  J. Baker,  G. J. O. Beran,  
 K. Brandhorst,  S. T. Brown,  E. F. C. Byrd,  Arup K. Chakraborty,  
 G. K. L. Chan,  Chun-Min Chang,  Yunqing Chen,  C.-L. Cheng,  
 Siu Hung Chien,  D. M. Chipman,  D. L. Crittenden,  H. Dachsel,  
 R. J. Doerksen,  A. D. Dutoi,  R. G. Edgar,  J. Fosso-Tande,  
 L. Fusti-Molnar,  D. Ghosh,  A. Ghysels,  A. Golubeva-Zadorozhnaya,  
 J. Gonthier,  M. S. Gordon,  S. R. Gwaltney,  G. Hawkins,  J. E. Herr,  
 A. Heyden,  S. Hirata,  E. G. Hohenstein,  G. Kedziora,  F. J. Keil,  
 C. Kelley,  Jihan Kim,  R. A. King,  R. Z. Khaliullin,  P. P. Korambath,  
 W. Kurlancheek,  A. Laurent,  A. M. Lee,  M. S. Lee,  S. V. Levchenko,  
 Ching Yeh Lin,  D. Liotard,  E. Livshits,  R. C. Lochan,  I. Lotan,  
 L. A. Martinez-Martinez,  P. E. Maslen,  N. Nair,  D. P. O'Neill,  
 D. Neuhauser,  E. Neuscamman,  C. M. Oana,  R. Olivares-Amaya,  R. Olson,  
 T. M. Perrine,  B. Peters,  P. A. Pieniazek,  A. Prociuk,  Y. M. Rhee,  
 J. Ritchie,  M. A. Rohrdanz,  E. Rosta,  N. J. Russ,  H. F. Schaefer III,  
 M. W. Schmidt,  N. E. Schultz,  S. Sharma,  N. Shenvi,  C. D. Sherrill,  
 A. C. Simmonett,  A. Sodt,  T. Stein,  D. Stuck,  K. S. Thanthiriwatte,  
 V. Vanovschi,  L. Vogt,  Tao Wang,  A. Warshel,  M. A. Watson,  
 C. F. Williams,  Q. Wu,  X. Xu,  Jun Yang,  W. Zhang,  Yan Zhao

   Please cite Q-Chem as follows:
  "Software for the frontiers of quantum chemistry:
   An overview of developments in the Q-Chem 5 package"
   J. Chem. Phys. 155, 084801 (2021)
   https://doi.org/10.1063/5.0055522 (open access)

 Q-Chem 5.4.2 for Intel X86 EM64T Linux

 Parts of Q-Chem use Armadillo 9.900.5 (Nocturnal Misbehaviour).
 http://arma.sourceforge.net/

 Q-Chem begins on Fri Feb 28 21:24:58 2025  

 Host: 
0

     Scratch files written to /scratch/qchem152156//
 Dec1321 |scratch|qcdevops|jenkins|workspace|build_RNUM 5684   
 Processing $rem in /home/kchung25/qchem/5.4.0/config/preferences:
 Processing $rem in /home/kchung25/.qchemrc:

 Q-Chem warning in module libgen/rem_setup.C, line 3079:

 Neither GIA nor STOLL is specified by user. Use STOLL as the default


 Checking the input file for inconsistencies... 	...done.

--------------------------------------------------------------
User input:
--------------------------------------------------------------
$molecule
0 1
--
0 1
C    1.447113   0.504977   1.091606
C    1.635198  -0.309395  -0.155937
O    2.907118  -0.011819  -0.690990
H    3.040177  -0.530152  -1.486406
H    0.472155   0.294529   1.534282
H    1.509027   1.571559   0.863457
H    2.226329   0.272116   1.819833
H    0.838755  -0.076688  -0.879678
H    1.544353  -1.379853   0.079056
--
0 1
C   -2.027932   1.165505  -0.282143
C   -2.262596  -0.307312  -0.466646
O   -1.594041  -0.990302   0.572194
H   -1.758617  -1.931289   0.488629
H   -2.554023   1.741064  -1.045218
H   -0.962905   1.398319  -0.348543
H   -2.381845   1.486145   0.699509
H   -1.888449  -0.628346  -1.450293
H   -3.340269  -0.523081  -0.445541
$end

$rem
JOBTYPE          eda
EDA2             1
METHOD           wB97M-V
BASIS            def2-TZVPPD
SYMMETRY         false
MEM_TOTAL        50000
MEM_STATIC       10000
THRESH           14
SCF_CONVERGENCE  8
XC_GRID          000099000590
NL_GRID          1
EDA_CLS_DISP     true
FD_MAT_VEC_PROD  FALSE
$end
--------------------------------------------------------------
 ----------------------------------------------------------------
             Standard Nuclear Orientation (Angstroms)
    I     Atom           X                Y                Z
 ----------------------------------------------------------------
    1      C      -1.4471128985    -0.5049763976     1.0916063370
    2      C      -1.6351979764     0.3093949781    -0.1559370588
    3      O      -2.9071179938     0.0118186807    -0.6909898522
    4      H      -3.0401770435     0.5301512823    -1.4864061035
    5      H      -0.4721548833    -0.2945281535     1.5342821874
    6      H      -1.5090268826    -1.5715585125     0.8634578696
    7      H      -2.2263288706    -0.2721150552     1.8198332573
    8      H      -0.8387550041     0.0766876384    -0.8796779801
    9      H      -1.5443529922     1.3798530970     0.0790554053
   10      C       2.0279320544    -1.1655049936    -0.2821424956
   11      C       2.2625960092     0.3073119206    -0.4666462380
   12      O       1.5940410403     0.9903024200     0.5721934536
   13      H       1.7586170131     1.9312893826     0.4886279786
   14      H       2.5540230334    -1.7410643595    -1.0452172341
   15      H       0.9629050571    -1.3983190530    -0.3485423307
   16      H       2.3818451077    -1.4861444972     0.6995096473
   17      H       1.8884489558     0.6283454227    -1.4502933802
   18      H       3.3402690049     0.5230809579    -0.4455413951
 ----------------------------------------------------------------
 Molecular Point Group                 C1    NOp =  1
 Largest Abelian Subgroup              C1    NOp =  1
 Nuclear Repulsion Energy =         251.29681914 hartrees
 There are       26 alpha and       26 beta electrons
 Requested basis set is def2-TZVPPD
 There are 164 shells and 432 basis functions

 Q-Chem warning in module libmdc/get_mega.C, line 171:

 Allowed MEM_STATIC has been capped at MEM_STATIC=8191.
 Reduce the value of MEM_STATIC to silence this warning.


 Total QAlloc Memory Limit  50000 MB
 Mega-Array Size      8007 MB
 MEM_STATIC part      8191 MB
 A cutoff of  1.0D-14 yielded  12455 shell pairs
 There are     85907 function pairs (    105632 Cartesian)
 Smallest overlap matrix eigenvalue = 6.96E-06

 Scale SEOQF with 1.000000e-01/1.000000e-01/1.000000e-01

 Standard Electronic Orientation quadrupole field applied
 Nucleus-field energy     =     0.0000000073 hartrees

 -----------------------------------------------------------------------
  General SCF calculation program by
  Eric Jon Sundstrom, Paul Horn, Yuezhi Mao, Dmitri Zuev, Alec White,
  David Stuck, Shaama M.S., Shane Yost, Joonho Lee, David Small,
  Daniel Levine, Susi Lehtola, Hugh Burton, Evgeny Epifanovsky,
  Bang C. Huynh
 -----------------------------------------------------------------------
================================================================
                 ALMO-EDA with the EDA2 driver                  
================================================================
 The second-generation ALMO-EDA (for DFT):                      
 P. R. Horn, Y. Mao and M. Head-Gordon, PCCP, 18, 23067 (2016)  
 Y. Mao et al. Annu. Rev. Phys. Chem. 72, 641 (2021)            
 Decomposition of the frozen energy:                            
 P. R. Horn, Y. Mao and M. Head-Gordon, JCP, 144, 114107 (2016) 
 FERF model for polarization:                                   
 P. R. Horn and M. Head-Gordon, JCP, 143, 114111 (2015)         
================================================================
 Using eda2 option set 1
 Option set summary: Frozen orbital wavefunction, initial wavefunction decomposition, and nDQ polarization.
--------------------------------
Printing EDA Options
--------------------------------
eda_child_super_basis      0
fragmo_guess_mode          0
child_mp                   1
child_mp_orders            232
cls_elec                   1
cls_disp                   1
scfmi_mode                 1
scfmi_occs                 0
scfmi_virts                0
frz_relax                  0
frz_relax_method           0
dc_pen_start               0
dc_pen_conv                0
dc_pen_increment           0
dc_pen_steps               0
dc_pen_thresh_factor       0
dc_pen_pre_newton_thresh   0
frz_ortho_decomp           1
frz_ortho_decomp_conv      6
plot_mo_ortho_frz          0
frgm_method                2
scfmi_freeze_ss            0
separate_rehyb             0
plot_diff_den              0
eda_nocv                   0
eda_vct_relax              1
disp_free_x                0
disp_free_c                0
eda_bsse                   0
eda_pct_a                  0
eda_covp                   0
--------------------------------
Attempting to make child job directory: /scratch/qchem152156//Frg1/
Attempting to make child job directory: /scratch/qchem152156//Frg2/
Creating input file /scratch/qchem152156/Frg1.input
using default PutDataFrgm: nothing
calling putenv with: QCSCRATCH=/scratch/qchem152156/ 
Spawning Job For Fragment 0
Done Job For Fragment 0
calling putenv with: QCSCRATCH=/scratch 
calling putenv with: QCTHREADS=6 
Creating input file /scratch/qchem152156/Frg2.input
using default PutDataFrgm: nothing
calling putenv with: QCSCRATCH=/scratch/qchem152156/ 
Spawning Job For Fragment 1
Done Job For Fragment 1
calling putenv with: QCSCRATCH=/scratch 
calling putenv with: QCTHREADS=6 
Doing General SCFMI
 Exchange:     0.1500 Hartree-Fock + 1.0000 wB97M-V + LR-HF
 Correlation:  1.0000 wB97M-V
 Using Euler-Maclaurin-Lebedev (99,590) quadrature formula
 Nonlocal Correlation:  VV10 with C = 0.0100 and b = 6.00 and scale = 1.00000
 Grid used for NLC:  SG-1 standard quadrature
performing fock build before subrot guess so that all methods have access
Printing subrot_rss_gen Method Specification:
Occupied Subspace Method is 0
Virtual Subspace Method is 0
Energy of the unrelaxed supersystem initial determinant -310.060875018653
write pseudocanon occs and virts to disk
write pseudocanon orbital energies to disk
Tolerance of ortho_decomp_scf: 1.00e-06
GDM subspace size: 20
Beginning the Orthogonal Decomposition of the Initial Supersystem Wavefunction
    1    -310.0383270002      5.76e-02     ortho_decomp Preconditoned Steepest Descent
    2    -310.0420577147      1.75e-03     ortho_decomp BFGS Step
    3    -310.0420746459      1.23e-04     ortho_decomp BFGS Step
    4    -310.0420746635      4.65e-06     ortho_decomp BFGS Step
    5    -310.0420746635      1.84e-07     ortho_decomp 00000 Convergence criterion met
 Hartree-Fock
 Hartree-Fock
 Hartree-Fock
 Exchange:     0.1500 Hartree-Fock + 1.0000 wB97M-V + LR-HF
 Correlation:  1.0000 wB97M-V
 Using Euler-Maclaurin-Lebedev (99,590) quadrature formula
 Nonlocal Correlation:  VV10 with C = 0.0100 and b = 6.00 and scale = 1.00000
 Grid used for NLC:  SG-1 standard quadrature
 Long-range K will be added via erf
 Coulomb attenuation parameter = 0.3 bohr**(-1)
 Nonlocal correlation = 2.042209480823e-01
Doing General SCFMI
 Exchange:     0.1500 Hartree-Fock + 1.0000 wB97M-V + LR-HF
 Correlation:  1.0000 wB97M-V
 Using Euler-Maclaurin-Lebedev (99,590) quadrature formula
 Nonlocal Correlation:  VV10 with C = 0.0100 and b = 6.00 and scale = 1.00000
 Grid used for NLC:  SG-1 standard quadrature
performing fock build at end of subrot_r(subrot) constructor so that all methods have access
<S^2> of initial wavefunction before polarization iterations 0.0000000000
Beginning iterations for the determination of the polarized wavefunction
Energy prior to optimization (guess energy) = -310.060875018653
Begin Timing: Total SCF Calculation
begin iterations for algorithm: DIIS         
the SCF tolerance is set to 1.00e-08
    1    -310.0608750187      1.35e-04     00000 
    2    -310.0613824239      5.62e-05     00000 
    3    -310.0614276712      3.24e-05     00000 
    4    -310.0614421117      9.74e-06     00000 
    5    -310.0614439267      3.14e-06     00000 
    6    -310.0614442864      1.44e-06     00000 
    7    -310.0614443641      4.93e-07     00000 
    8    -310.0614443747      1.69e-07     00000 
    9    -310.0614443753      9.54e-08     00000 
   10    -310.0614443754      3.78e-08     00000 
   11    -310.0614443754      1.58e-08     00000 
   12    -310.0614443754      6.82e-09     00000 Convergence criterion met
write pseudocanon occs and virts to disk
write pseudocanon orbital energies to disk
Timing for Total SCF: 287.00s (wall), 1720.15s (cpu)
<S^2> of polarized wavefunction after polarization iterations 0.0000000000
relaxing scfmi constraint to allow all rotations in the entire AO span
Doing General SCFMI
 Exchange:     0.1500 Hartree-Fock + 1.0000 wB97M-V + LR-HF
 Correlation:  1.0000 wB97M-V
 Using Euler-Maclaurin-Lebedev (99,590) quadrature formula
 Nonlocal Correlation:  VV10 with C = 0.0100 and b = 6.00 and scale = 1.00000
 Grid used for NLC:  SG-1 standard quadrature
performing fock build at end of subrot_r(subrot) constructor so that all methods have access
<S^2> of polarized wavefunction before ct-allowed iterations 0.0000000000
Beginning iterations for the determination of the CT-Allowed wavefunction
Energy prior to optimization (guess energy) = -310.061444375447
Begin Timing: Total SCF Calculation
begin iterations for algorithm: DIIS         
the SCF tolerance is set to 1.00e-08
    1    -310.0614443754      8.47e-05     00000 
    2    -310.0621580130      9.44e-06     00000 
    3    -310.0621776456      2.11e-06     00000 
    4    -310.0621781038      1.72e-06     00000 
    5    -310.0621783030      2.40e-07     00000 
    6    -310.0621783085      8.93e-08     00000 
    7    -310.0621783094      2.07e-08     00000 
    8    -310.0621783094      4.57e-09     00000 Convergence criterion met
write pseudocanon occs and virts to disk
write pseudocanon orbital energies to disk
Timing for Total SCF: 184.00s (wall), 1105.03s (cpu)
<S^2> of ct_allowed wavefunction after ct-allowed iterations 0.0000000000

================================
        Results of EDA2         
================================
Basic EDA Quantities
--------------------
Fragment Energies (Ha):
1 -155.0295678883
2 -155.0296004911
--------------------
  E_prp (kJ/mol) = 0.0000
  E_frz (kJ/mol) = -4.4808
  E_pol (kJ/mol) = -1.4949
  E_vct (kJ/mol) = -1.9270
  E_int (kJ/mol) = -7.9027
--------------------


Decomposition of frozen interaction energy
--------------------
  --------------------
  Orthogonal Frozen Decomposition:
  --------------------
     E_elec   (ELEC)   (kJ/mol) = -24.2812
     E_pauli  (PAULI)  (kJ/mol) = 34.3958
     E_disp   (DISP)   (kJ/mol) = -14.5955
  --------------------
  Classical Frozen Decomposition:
  --------------------
     E_cls_elec  (CLS ELEC)  (kJ/mol) = -9.1194
     E_mod_pauli (MOD PAULI) (kJ/mol) = 17.3577 (FRZ - CLS ELEC - CLS DISP)
     E_cls_disp  (CLS DISP)  (kJ/mol) = -12.7191
  --------------------
--------------------

Simplified EDA Summary (kJ/mol)
--------------------
 PREPARATION      0.0000
 FROZEN           -4.4808 (ELEC + PAULI + DISP)
[ELEC + PAULI = 8.2383, DISP = -12.7191]
 POLARIZATION    -1.4949
 CHARGE TRANSFER -1.9270
 TOTAL           -7.9027     (PRP + FRZ + POL + CT)
--------------------
 
 --------------------------------------------------------------
 
                    Orbital Energies (a.u.)
 --------------------------------------------------------------
 
 Alpha MOs
 -- Occupied --
-19.3379 -19.3239 -10.3919 -10.3770 -10.3312 -10.3143  -1.1594  -1.1452
 -0.8783  -0.8625  -0.7316  -0.7155  -0.6385  -0.6238  -0.5831  -0.5654
 -0.5186  -0.5026  -0.4889  -0.4718  -0.4716  -0.4561  -0.4396  -0.4275
 -0.3848  -0.3705
 -- Virtual --
  0.0275   0.0448   0.0532   0.0584   0.0775   0.0829   0.0889   0.0965
  0.1097   0.1137   0.1274   0.1375   0.1444   0.1599   0.1658   0.1685
  0.1753   0.1790   0.1880   0.1965   0.2036   0.2069   0.2230   0.2303
  0.2347   0.2386   0.2510   0.2621   0.2664   0.2690   0.2748   0.2862
  0.2946   0.3008   0.3016   0.3043   0.3105   0.3117   0.3197   0.3222
  0.3274   0.3343   0.3386   0.3450   0.3524   0.3530   0.3583   0.3622
  0.3684   0.3703   0.3761   0.3843   0.3901   0.3984   0.4007   0.4072
  0.4109   0.4192   0.4240   0.4278   0.4387   0.4439   0.4524   0.4605
  0.4616   0.4672   0.4785   0.4802   0.4813   0.4955   0.5011   0.5051
  0.5080   0.5213   0.5334   0.5367   0.5468   0.5547   0.5602   0.5614
  0.5717   0.5778   0.5889   0.5923   0.5964   0.6118   0.6231   0.6300
  0.6461   0.6565   0.6711   0.6883   0.6961   0.6977   0.7049   0.7130
  0.7244   0.7251   0.7369   0.7407   0.7539   0.7587   0.7636   0.7666
  0.7731   0.7791   0.7882   0.7991   0.8059   0.8152   0.8172   0.8268
  0.8337   0.8508   0.8588   0.8667   0.8879   0.9051   0.9318   0.9444
  0.9603   0.9637   0.9815   0.9873   1.0007   1.0161   1.0316   1.0421
  1.0581   1.0657   1.0821   1.0993   1.1077   1.1289   1.1401   1.1666
  1.1910   1.2072   1.2187   1.2268   1.2332   1.2446   1.2573   1.2634
  1.2695   1.2825   1.2828   1.2900   1.3063   1.3236   1.3343   1.3451
  1.3631   1.3711   1.3821   1.3976   1.3998   1.4112   1.4314   1.4386
  1.4645   1.4744   1.4793   1.5025   1.5194   1.5330   1.5536   1.5811
  1.5926   1.5988   1.6496   1.6658   1.6691   1.6789   1.6822   1.6869
  1.7030   1.7108   1.7335   1.7347   1.7479   1.7658   1.8067   1.8225
  1.8369   1.8493   1.9319   1.9763   1.9878   1.9992   2.0199   2.0297
  2.0645   2.0926   2.1281   2.1463   2.1705   2.1786   2.2421   2.2686
  2.2839   2.2984   2.3402   2.3615   2.4036   2.4206   2.4270   2.4421
  2.5314   2.5404   2.6983   2.7231   2.7245   2.7414   2.7770   2.8003
  2.8434   2.8761   2.8804   2.9013   2.9059   2.9168   2.9267   2.9455
  2.9639   2.9723   2.9880   3.0009   3.0163   3.0326   3.0441   3.0614
  3.0777   3.0835   3.1099   3.1133   3.1435   3.1535   3.1695   3.1801
  3.2174   3.2203   3.2251   3.2387   3.2469   3.2617   3.2676   3.2817
  3.2925   3.3061   3.3086   3.3221   3.3255   3.3399   3.3723   3.3813
  3.4265   3.4595   3.4703   3.4910   3.5203   3.5276   3.5459   3.5511
  3.5746   3.5839   3.5934   3.6009   3.6166   3.6263   3.6509   3.6628
  3.6922   3.7098   3.7340   3.7524   3.7702   3.7803   3.7943   3.8072
  3.8203   3.8395   3.9090   3.9126   3.9287   3.9372   4.0062   4.0176
  4.0291   4.0350   4.0432   4.0529   4.0750   4.0844   4.0998   4.1158
  4.1259   4.1338   4.1466   4.1517   4.1646   4.1717   4.1876   4.2054
  4.2229   4.2462   4.2615   4.2804   4.2834   4.2926   4.3047   4.3405
  4.3456   4.3763   4.3771   4.3935   4.4130   4.4489   4.4644   4.4753
  4.4969   4.5120   4.5329   4.5559   4.5647   4.5777   4.5978   4.6184
  4.6527   4.6718   4.6793   4.6989   4.7046   4.7291   4.8278   4.8524
  4.8705   4.8861   4.9276   4.9429   4.9592   4.9618   4.9691   4.9970
  5.0140   5.0230   5.0459   5.0720   5.1215   5.1318   5.2592   5.2796
  5.3045   5.3141   5.3201   5.3370   5.4077   5.4198   5.4298   5.4371
  5.4454   5.4559   5.4666   5.4926   5.5231   5.5504   5.5736   5.5822
  5.6339   5.6462   5.6639   5.6749   5.7572   5.7764   5.7994   5.8086
  5.8258   5.8510   5.9583   5.9719   6.1107   6.1258   6.2558   6.2609
  6.6821   6.6851   6.8253   6.8291   6.8761   6.8891   6.9557   6.9616
  7.0549   7.0806   7.3620   7.3871   7.5613   7.5677   7.7899   7.8034
 23.7530  23.7959  24.0730  24.1373  44.8062  44.8642
 --------------------------------------------------------------
 
          Ground-State Mulliken Net Atomic Charges

     Atom                 Charge (a.u.)
  ----------------------------------------
      1 C                    -1.028533
      2 C                     0.010103
      3 O                    -0.405392
      4 H                     0.125200
      5 H                     0.261252
      6 H                     0.263669
      7 H                     0.330610
      8 H                     0.166368
      9 H                     0.267374
     10 C                    -0.863123
     11 C                    -0.339545
     12 O                    -0.340336
     13 H                     0.109492
     14 H                     0.329504
     15 H                     0.159824
     16 H                     0.261886
     17 H                     0.315006
     18 H                     0.376641
  ----------------------------------------
  Sum of atomic charges =     0.000000

 -----------------------------------------------------------------
                    Cartesian Multipole Moments
 -----------------------------------------------------------------
    Charge (ESU x 10^10)
                -0.0000
    Dipole Moment (Debye)
         X       2.2029      Y       1.7198      Z      -1.5881
       Tot       3.2144
    Quadrupole Moments (Debye-Ang)
        XX     -43.3678     XY      -1.3588     YY     -36.6791
        XZ       0.3262     YZ      -1.5988     ZZ     -39.2744
    Octopole Moments (Debye-Ang^2)
       XXX      25.1790    XXY      14.7822    XYY       5.3029
       YYY      16.6320    XXZ      -9.5874    XYZ       4.9059
       YYZ       0.4556    XZZ     -10.4451    YZZ       3.8639
       ZZZ      -7.4802
    Hexadecapole Moments (Debye-Ang^3)
      XXXX   -1123.2641   XXXY     -13.6057   XXYY    -196.6756
      XYYY      24.3959   YYYY    -180.7173   XXXZ      31.4620
      XXYZ     -13.1126   XYYZ       8.7241   YYYZ       7.5701
      XXZZ    -183.9820   XYZZ      -9.2558   YYZZ     -62.8126
      XZZZ      26.4694   YZZZ      -2.0790   ZZZZ    -173.5963
 -----------------------------------------------------------------
 Total job time:  1490.19s(wall), 5489.67s(cpu) 
 Fri Feb 28 21:49:48 2025

        *************************************************************
        *                                                           *
        *  Thank you very much for using Q-Chem.  Have a nice day.  *
        *                                                           *
        *************************************************************


