
Running Job 1 of 1 004_ethanol_dimer_27_almo.inp
qchem 004_ethanol_dimer_27_almo.inp_123039.0 /scratch/qchem123039/ 6
/home/kchung25/qchem/5.4.0/exe/qcprog.exe_s 004_ethanol_dimer_27_almo.inp_123039.0 /scratch/qchem123039/
                  Welcome to Q-Chem
     A Quantum Leap Into The Future Of Chemistry


 Q-Chem 5.4, Q-Chem, Inc., Pleasanton, CA (2021)

 E. Epifanovsky,  A. T. B. Gilbert,  Xintian Feng,  Joonho Lee,  Yuezhi Mao,  
 N. Mardirossian,  P. Pokhilko,  A. White,  M. Wormit,  M. P. Coons,  
 A. L. Dempwolff,  Zhengting Gan,  D. Hait,  P. R. Horn,  L. D. Jacobson,  
 I. Kaliman,  J. Kussmann,  A. W. Lange,  Ka Un Lao,  D. S. Levine,  Jie Liu,  
 S. C. McKenzie,  A. F. Morrison,  K. Nanda,  F. Plasser,  D. R. Rehn,  
 M. L. Vidal,  Zhi-Qiang You,  Ying Zhu,  B. Alam,  B. Albrecht,  
 A. Aldossary,  E. Alguire,  J. H. Andersen,  D. Barton,  K. Begam,  A. Behn,  
 Y. A. Bernard,  E. J. Berquist,  H. Burton,  A. Carreras,  K. Carter-Fenk,  
 Romit Chakraborty,  A. D. Chien,  K. D. Closser,  V. Cofer-Shabica,  
 S. Dasgupta,  Jia Deng,  M. de Wergifosse,  M. Diedenhofen,  Hainam Do,  
 S. Ehlert,  Po-Tung Fang,  S. Fatehi,  Qingguo Feng,  T. Friedhoff,  
 J. Gayvert,  Qinghui Ge,  G. Gidofalvi,  M. Goldey,  J. Gomes,  
 C. Gonzalez-Espinoza,  S. Gulania,  A. Gunina,  M. W. D. Hanson-Heine,  
 P. H. P. Harbach,  A. W. Hauser,  M. F. Herbst,  M. Hernandez Vera,  
 M. Hodecker,  Z. C. Holden,  S. Houck,  Xunkun Huang,  Kerwin Hui,  
 B. C. Huynh,  M. Ivanov,  Hyunjun Ji,  Hanjie Jiang,  B. Kaduk,  S. Kaehler,  
 K. Khistyaev,  Jaehoon Kim,  P. Klunzinger,  Z. Koczor-Benda,  
 Joong Hoon Koh,  D. Kosenkov,  L. Koulias,  T. Kowalczyk,  C. M. Krauter,  
 K. Kue,  A. Kunitsa,  T. Kus,  A. Landau,  K. V. Lawler,  D. Lefrancois,  
 S. Lehtola,  Rain Li,  Yi-Pei Li,  Jiashu Liang,  M. Liebenthal,  
 Hung-Hsuan Lin,  You-Sheng Lin,  Fenglai Liu,  Kuan-Yu Liu,  
 M. Loipersberger,  A. Luenser,  A. Manjanath,  P. Manohar,  E. Mansoor,  
 S. F. Manzer,  Shan-Ping Mao,  A. V. Marenich,  T. Markovich,  S. Mason,  
 S. A. Maurer,  P. F. McLaughlin,  M. F. S. J. Menger,  J.-M. Mewes,  
 S. A. Mewes,  P. Morgante,  J. W. Mullinax,  K. J. Oosterbaan,  G. Paran,  
 Alexander C. Paul,  Suranjan K. Paul,  F. Pavosevic,  Zheng Pei,  S. Prager,  
 E. I. Proynov,  E. Ramos,  B. Rana,  A. E. Rask,  A. Rettig,  R. M. Richard,  
 F. Rob,  E. Rossomme,  T. Scheele,  M. Scheurer,  M. Schneider,  
 N. Sergueev,  S. M. Sharada,  W. Skomorowski,  D. W. Small,  C. J. Stein,  
 Yu-Chuan Su,  E. J. Sundstrom,  Zhen Tao,  J. Thirman,  T. Tsuchimochi,  
 N. M. Tubman,  S. P. Veccham,  O. Vydrov,  J. Wenzel,  J. Witte,  A. Yamada,  
 Kun Yao,  S. Yeganeh,  S. R. Yost,  A. Zech,  Igor Ying Zhang,  Xing Zhang,  
 Yu Zhang,  D. Zuev,  A. Aspuru-Guzik,  A. T. Bell,  N. A. Besley,  
 K. B. Bravaya,  B. R. Brooks,  D. Casanova,  Jeng-Da Chai,  S. Coriani,  
 C. J. Cramer,  A. E. DePrince, III,  R. A. DiStasio Jr.,  A. Dreuw,  
 B. D. Dunietz,  T. R. Furlani,  W. A. Goddard III,  S. Grimme,  
 S. Hammes-Schiffer,  T. Head-Gordon,  W. J. Hehre,  Chao-Ping Hsu,  
 T.-C. Jagau,  Yousung Jung,  A. Klamt,  Jing Kong,  D. S. Lambrecht,  
 WanZhen Liang,  N. J. Mayhall,  C. W. McCurdy,  J. B. Neaton,  T. Neudecker,  
 C. Ochsenfeld,  J. A. Parkhill,  R. Peverati,  V. A. Rassolov,  Yihan Shao,  
 L. V. Slipchenko,  R. P. Steele,  J. E. Subotnik,  A. J. W. Thom,  
 A. Tkatchenko,  D. G. Truhlar,  T. Van Voorhis,  T. A. Wesolowski,  
 K. B. Whaley,  H. L. Woodcock III,  P. M. Zimmerman,  S. Faraji,  
 P. M. W. Gill,  M. Head-Gordon,  J. M. Herbert,  A. I. Krylov

 Additional authors since Version 5.4.0: 
 Chandrima Chakravarty,  L. Cunha,  R. Kang,  Yongbin Kim,  S. Kotaru,  
 Shaozhi Li,  Xiangyuan Li,  F. Matz,  A. Molle,  V. Parravicini,  
 Haisheng Ren,  Hengyuan Shen,  Yingli Su,  Hung-Yi Tsai,  C. Utku,  
 Fang Wang,  Jeff Yang,  F. Zeller

 Contributors to earlier versions of Q-Chem not listed above: 
 R. D. Adamson,  B. Austin,  R. Baer,  J. Baker,  G. J. O. Beran,  
 K. Brandhorst,  S. T. Brown,  E. F. C. Byrd,  Arup K. Chakraborty,  
 G. K. L. Chan,  Chun-Min Chang,  Yunqing Chen,  C.-L. Cheng,  
 Siu Hung Chien,  D. M. Chipman,  D. L. Crittenden,  H. Dachsel,  
 R. J. Doerksen,  A. D. Dutoi,  R. G. Edgar,  J. Fosso-Tande,  
 L. Fusti-Molnar,  D. Ghosh,  A. Ghysels,  A. Golubeva-Zadorozhnaya,  
 J. Gonthier,  M. S. Gordon,  S. R. Gwaltney,  G. Hawkins,  J. E. Herr,  
 A. Heyden,  S. Hirata,  E. G. Hohenstein,  G. Kedziora,  F. J. Keil,  
 C. Kelley,  Jihan Kim,  R. A. King,  R. Z. Khaliullin,  P. P. Korambath,  
 W. Kurlancheek,  A. Laurent,  A. M. Lee,  M. S. Lee,  S. V. Levchenko,  
 Ching Yeh Lin,  D. Liotard,  E. Livshits,  R. C. Lochan,  I. Lotan,  
 L. A. Martinez-Martinez,  P. E. Maslen,  N. Nair,  D. P. O'Neill,  
 D. Neuhauser,  E. Neuscamman,  C. M. Oana,  R. Olivares-Amaya,  R. Olson,  
 T. M. Perrine,  B. Peters,  P. A. Pieniazek,  A. Prociuk,  Y. M. Rhee,  
 J. Ritchie,  M. A. Rohrdanz,  E. Rosta,  N. J. Russ,  H. F. Schaefer III,  
 M. W. Schmidt,  N. E. Schultz,  S. Sharma,  N. Shenvi,  C. D. Sherrill,  
 A. C. Simmonett,  A. Sodt,  T. Stein,  D. Stuck,  K. S. Thanthiriwatte,  
 V. Vanovschi,  L. Vogt,  Tao Wang,  A. Warshel,  M. A. Watson,  
 C. F. Williams,  Q. Wu,  X. Xu,  Jun Yang,  W. Zhang,  Yan Zhao

   Please cite Q-Chem as follows:
  "Software for the frontiers of quantum chemistry:
   An overview of developments in the Q-Chem 5 package"
   J. Chem. Phys. 155, 084801 (2021)
   https://doi.org/10.1063/5.0055522 (open access)

 Q-Chem 5.4.2 for Intel X86 EM64T Linux

 Parts of Q-Chem use Armadillo 9.900.5 (Nocturnal Misbehaviour).
 http://arma.sourceforge.net/

 Q-Chem begins on Fri Feb 28 10:52:44 2025  

 Host: 
0

     Scratch files written to /scratch/qchem123039//
 Dec1321 |scratch|qcdevops|jenkins|workspace|build_RNUM 5684   
 Processing $rem in /home/kchung25/qchem/5.4.0/config/preferences:
 Processing $rem in /home/kchung25/.qchemrc:

 Q-Chem warning in module libgen/rem_setup.C, line 3079:

 Neither GIA nor STOLL is specified by user. Use STOLL as the default


 Checking the input file for inconsistencies... 	...done.

--------------------------------------------------------------
User input:
--------------------------------------------------------------
$molecule
0 1
--
0 1
C   -2.238295  -0.891233   0.270374
C   -1.634164   0.196707  -0.579583
O   -1.258240   1.328567   0.180839
H   -2.031489   1.643969   0.655470
H   -2.490229  -1.765300  -0.333306
H   -3.156000  -0.546994   0.757987
H   -1.536574  -1.205588   1.045787
H   -2.325259   0.483848  -1.384965
H   -0.716836  -0.166607  -1.050354
--
0 1
C    2.204068   0.925718  -0.184110
C    1.625578  -0.240101   0.574992
O    1.303689  -1.328256  -0.269274
H    2.092839  -1.573245  -0.759082
H    2.419202   1.760279   0.486142
H    1.499722   1.273872  -0.941991
H    3.138932   0.647749  -0.681409
H    0.687535   0.058665   1.050497
H    2.311441  -0.559684   1.372672
$end

$rem
JOBTYPE          eda
EDA2             1
METHOD           wB97M-V
BASIS            def2-TZVPPD
SYMMETRY         false
MEM_TOTAL        50000
MEM_STATIC       10000
THRESH           14
SCF_CONVERGENCE  8
XC_GRID          000099000590
NL_GRID          1
EDA_CLS_DISP     true
FD_MAT_VEC_PROD  FALSE
$end
--------------------------------------------------------------
 ----------------------------------------------------------------
             Standard Nuclear Orientation (Angstroms)
    I     Atom           X                Y                Z
 ----------------------------------------------------------------
    1      C      -2.2382949981    -0.8912328657     0.2703738978
    2      C      -1.6341639611     0.1967071255    -0.5795830871
    3      O      -1.2582398985     1.3285670917     0.1808389323
    4      H      -2.0314888772     1.6439691164     0.6554699506
    5      H      -2.4902290467    -1.7652998410    -0.3333061178
    6      H      -3.1559999753    -0.5469938348     0.7579869188
    7      H      -1.5365740010    -1.2055879147     1.0457868806
    8      H      -2.3252589598     0.4838481747    -1.3849650707
    9      H      -0.7168359845    -0.1666069058    -1.0503541086
   10      C       2.2040680778     0.9257179423    -0.1841101273
   11      C       1.6255780360    -0.2401010481     0.5749918555
   12      O       1.3036889741    -1.3282560149    -0.2692741638
   13      H       2.0928389558    -1.5732450400    -0.7590821807
   14      H       2.4192021256     1.7602789178     0.4861418880
   15      H       1.4997220826     1.2738719910    -0.9419911093
   16      H       3.1389320579     0.6477489108    -0.6814091471
   17      H       0.6875350565     0.0586649841     1.0504968758
   18      H       2.3114410331    -0.5596840969     1.3726718384
 ----------------------------------------------------------------
 Molecular Point Group                 C1    NOp =  1
 Largest Abelian Subgroup              C1    NOp =  1
 Nuclear Repulsion Energy =         258.91518335 hartrees
 There are       26 alpha and       26 beta electrons
 Requested basis set is def2-TZVPPD
 There are 164 shells and 432 basis functions

 Q-Chem warning in module libmdc/get_mega.C, line 171:

 Allowed MEM_STATIC has been capped at MEM_STATIC=8191.
 Reduce the value of MEM_STATIC to silence this warning.


 Total QAlloc Memory Limit  50000 MB
 Mega-Array Size      8007 MB
 MEM_STATIC part      8191 MB
 A cutoff of  1.0D-14 yielded  12591 shell pairs
 There are     87155 function pairs (    107421 Cartesian)
 Smallest overlap matrix eigenvalue = 7.49E-06

 Scale SEOQF with 1.000000e-01/1.000000e-01/1.000000e-01

 Standard Electronic Orientation quadrupole field applied
 Nucleus-field energy     =     0.0000000084 hartrees

 -----------------------------------------------------------------------
  General SCF calculation program by
  Eric Jon Sundstrom, Paul Horn, Yuezhi Mao, Dmitri Zuev, Alec White,
  David Stuck, Shaama M.S., Shane Yost, Joonho Lee, David Small,
  Daniel Levine, Susi Lehtola, Hugh Burton, Evgeny Epifanovsky,
  Bang C. Huynh
 -----------------------------------------------------------------------
================================================================
                 ALMO-EDA with the EDA2 driver                  
================================================================
 The second-generation ALMO-EDA (for DFT):                      
 P. R. Horn, Y. Mao and M. Head-Gordon, PCCP, 18, 23067 (2016)  
 Y. Mao et al. Annu. Rev. Phys. Chem. 72, 641 (2021)            
 Decomposition of the frozen energy:                            
 P. R. Horn, Y. Mao and M. Head-Gordon, JCP, 144, 114107 (2016) 
 FERF model for polarization:                                   
 P. R. Horn and M. Head-Gordon, JCP, 143, 114111 (2015)         
================================================================
 Using eda2 option set 1
 Option set summary: Frozen orbital wavefunction, initial wavefunction decomposition, and nDQ polarization.
--------------------------------
Printing EDA Options
--------------------------------
eda_child_super_basis      0
fragmo_guess_mode          0
child_mp                   1
child_mp_orders            232
cls_elec                   1
cls_disp                   1
scfmi_mode                 1
scfmi_occs                 0
scfmi_virts                0
frz_relax                  0
frz_relax_method           0
dc_pen_start               0
dc_pen_conv                0
dc_pen_increment           0
dc_pen_steps               0
dc_pen_thresh_factor       0
dc_pen_pre_newton_thresh   0
frz_ortho_decomp           1
frz_ortho_decomp_conv      6
plot_mo_ortho_frz          0
frgm_method                2
scfmi_freeze_ss            0
separate_rehyb             0
plot_diff_den              0
eda_nocv                   0
eda_vct_relax              1
disp_free_x                0
disp_free_c                0
eda_bsse                   0
eda_pct_a                  0
eda_covp                   0
--------------------------------
Attempting to make child job directory: /scratch/qchem123039//Frg1/
Attempting to make child job directory: /scratch/qchem123039//Frg2/
Creating input file /scratch/qchem123039/Frg1.input
using default PutDataFrgm: nothing
calling putenv with: QCSCRATCH=/scratch/qchem123039/ 
Spawning Job For Fragment 0
Done Job For Fragment 0
calling putenv with: QCSCRATCH=/scratch 
calling putenv with: QCTHREADS=6 
Creating input file /scratch/qchem123039/Frg2.input
using default PutDataFrgm: nothing
calling putenv with: QCSCRATCH=/scratch/qchem123039/ 
Spawning Job For Fragment 1
Done Job For Fragment 1
calling putenv with: QCSCRATCH=/scratch 
calling putenv with: QCTHREADS=6 
Doing General SCFMI
 Exchange:     0.1500 Hartree-Fock + 1.0000 wB97M-V + LR-HF
 Correlation:  1.0000 wB97M-V
 Using Euler-Maclaurin-Lebedev (99,590) quadrature formula
 Nonlocal Correlation:  VV10 with C = 0.0100 and b = 6.00 and scale = 1.00000
 Grid used for NLC:  SG-1 standard quadrature
performing fock build before subrot guess so that all methods have access
Printing subrot_rss_gen Method Specification:
Occupied Subspace Method is 0
Virtual Subspace Method is 0
Energy of the unrelaxed supersystem initial determinant -310.061827747512
write pseudocanon occs and virts to disk
write pseudocanon orbital energies to disk
Tolerance of ortho_decomp_scf: 1.00e-06
GDM subspace size: 20
Beginning the Orthogonal Decomposition of the Initial Supersystem Wavefunction
    1    -310.0300493927      7.37e-02     ortho_decomp Preconditoned Steepest Descent
    2    -310.0350160170      2.01e-03     ortho_decomp BFGS Step
    3    -310.0350374239      1.64e-04     ortho_decomp BFGS Step
    4    -310.0350374499      5.74e-06     ortho_decomp BFGS Step
    5    -310.0350374500      1.59e-07     ortho_decomp 00000 Convergence criterion met
 Hartree-Fock
 Hartree-Fock
 Hartree-Fock
 Exchange:     0.1500 Hartree-Fock + 1.0000 wB97M-V + LR-HF
 Correlation:  1.0000 wB97M-V
 Using Euler-Maclaurin-Lebedev (99,590) quadrature formula
 Nonlocal Correlation:  VV10 with C = 0.0100 and b = 6.00 and scale = 1.00000
 Grid used for NLC:  SG-1 standard quadrature
 Long-range K will be added via erf
 Coulomb attenuation parameter = 0.3 bohr**(-1)
 Nonlocal correlation = 2.036008229444e-01
Doing General SCFMI
 Exchange:     0.1500 Hartree-Fock + 1.0000 wB97M-V + LR-HF
 Correlation:  1.0000 wB97M-V
 Using Euler-Maclaurin-Lebedev (99,590) quadrature formula
 Nonlocal Correlation:  VV10 with C = 0.0100 and b = 6.00 and scale = 1.00000
 Grid used for NLC:  SG-1 standard quadrature
performing fock build at end of subrot_r(subrot) constructor so that all methods have access
<S^2> of initial wavefunction before polarization iterations 0.0000000000
Beginning iterations for the determination of the polarized wavefunction
Energy prior to optimization (guess energy) = -310.061827747513
Begin Timing: Total SCF Calculation
begin iterations for algorithm: DIIS         
the SCF tolerance is set to 1.00e-08
    1    -310.0618277475      1.71e-04     00000 
    2    -310.0626979534      5.63e-05     00000 
    3    -310.0627699281      3.07e-05     00000 
    4    -310.0627869266      1.06e-05     00000 
    5    -310.0627892764      4.54e-06     00000 
    6    -310.0627898838      1.98e-06     00000 
    7    -310.0627900410      6.84e-07     00000 
    8    -310.0627900628      2.31e-07     00000 
    9    -310.0627900642      9.09e-08     00000 
   10    -310.0627900643      4.25e-08     00000 
   11    -310.0627900643      1.88e-08     00000 
   12    -310.0627900643      9.62e-09     00000 Convergence criterion met
write pseudocanon occs and virts to disk
write pseudocanon orbital energies to disk
Timing for Total SCF: 297.00s (wall), 1779.81s (cpu)
<S^2> of polarized wavefunction after polarization iterations 0.0000000000
relaxing scfmi constraint to allow all rotations in the entire AO span
Doing General SCFMI
 Exchange:     0.1500 Hartree-Fock + 1.0000 wB97M-V + LR-HF
 Correlation:  1.0000 wB97M-V
 Using Euler-Maclaurin-Lebedev (99,590) quadrature formula
 Nonlocal Correlation:  VV10 with C = 0.0100 and b = 6.00 and scale = 1.00000
 Grid used for NLC:  SG-1 standard quadrature
performing fock build at end of subrot_r(subrot) constructor so that all methods have access
<S^2> of polarized wavefunction before ct-allowed iterations 0.0000000000
Beginning iterations for the determination of the CT-Allowed wavefunction
Energy prior to optimization (guess energy) = -310.062790064295
Begin Timing: Total SCF Calculation
begin iterations for algorithm: DIIS         
the SCF tolerance is set to 1.00e-08
    1    -310.0627900643      1.00e-04     00000 
    2    -310.0638822247      1.26e-05     00000 
    3    -310.0639160719      3.35e-06     00000 
    4    -310.0639169485      2.65e-06     00000 
    5    -310.0639174183      3.12e-07     00000 
    6    -310.0639174291      1.09e-07     00000 
    7    -310.0639174309      3.13e-08     00000 
    8    -310.0639174311      7.00e-09     00000 Convergence criterion met
write pseudocanon occs and virts to disk
write pseudocanon orbital energies to disk
Timing for Total SCF: 190.00s (wall), 1141.37s (cpu)
<S^2> of ct_allowed wavefunction after ct-allowed iterations 0.0000000000

================================
        Results of EDA2         
================================
Basic EDA Quantities
--------------------
Fragment Energies (Ha):
1 -155.0294548924
2 -155.0294336675
--------------------
  E_prp (kJ/mol) = 0.0000
  E_frz (kJ/mol) = -7.7169
  E_pol (kJ/mol) = -2.5266
  E_vct (kJ/mol) = -2.9599
  E_int (kJ/mol) = -13.2035
--------------------


Decomposition of frozen interaction energy
--------------------
  --------------------
  Orthogonal Frozen Decomposition:
  --------------------
     E_elec   (ELEC)   (kJ/mol) = -38.3822
     E_pauli  (PAULI)  (kJ/mol) = 48.3632
     E_disp   (DISP)   (kJ/mol) = -17.6979
  --------------------
  Classical Frozen Decomposition:
  --------------------
     E_cls_elec  (CLS ELEC)  (kJ/mol) = -16.5949
     E_mod_pauli (MOD PAULI) (kJ/mol) = 24.3619 (FRZ - CLS ELEC - CLS DISP)
     E_cls_disp  (CLS DISP)  (kJ/mol) = -15.4840
  --------------------
--------------------

Simplified EDA Summary (kJ/mol)
--------------------
 PREPARATION      0.0000
 FROZEN           -7.7169 (ELEC + PAULI + DISP)
[ELEC + PAULI = 7.7671, DISP = -15.4840]
 POLARIZATION    -2.5266
 CHARGE TRANSFER -2.9599
 TOTAL           -13.2035     (PRP + FRZ + POL + CT)
--------------------
 
 --------------------------------------------------------------
 
                    Orbital Energies (a.u.)
 --------------------------------------------------------------
 
 Alpha MOs
 -- Occupied --
-19.3282 -19.3279 -10.3768 -10.3766 -10.3258 -10.3247  -1.1494  -1.1476
 -0.8652  -0.8639  -0.7356  -0.7348  -0.6150  -0.6041  -0.5630  -0.5492
 -0.5398  -0.5387  -0.4800  -0.4762  -0.4681  -0.4627  -0.4280  -0.4177
 -0.3798  -0.3727
 -- Virtual --
  0.0352   0.0457   0.0576   0.0631   0.0788   0.0822   0.0899   0.1019
  0.1168   0.1253   0.1309   0.1341   0.1445   0.1576   0.1668   0.1695
  0.1750   0.1871   0.1908   0.1995   0.2111   0.2181   0.2199   0.2338
  0.2439   0.2503   0.2549   0.2681   0.2736   0.2777   0.2899   0.2920
  0.2945   0.2986   0.3041   0.3067   0.3082   0.3159   0.3251   0.3267
  0.3320   0.3369   0.3391   0.3493   0.3544   0.3577   0.3591   0.3644
  0.3658   0.3734   0.3777   0.3829   0.3903   0.3923   0.3990   0.4058
  0.4061   0.4252   0.4311   0.4354   0.4384   0.4410   0.4474   0.4662
  0.4704   0.4714   0.4802   0.4832   0.4910   0.4938   0.5045   0.5148
  0.5177   0.5271   0.5297   0.5358   0.5408   0.5552   0.5649   0.5665
  0.5693   0.5898   0.5947   0.6020   0.6172   0.6420   0.6450   0.6517
  0.6540   0.6692   0.6884   0.6905   0.6964   0.6989   0.7018   0.7092
  0.7153   0.7320   0.7352   0.7382   0.7518   0.7551   0.7593   0.7755
  0.7760   0.7880   0.7942   0.8012   0.8056   0.8120   0.8264   0.8339
  0.8464   0.8530   0.8654   0.8714   0.8923   0.9083   0.9240   0.9265
  0.9465   0.9621   0.9863   0.9883   0.9927   0.9982   1.0372   1.0603
  1.0727   1.0806   1.1152   1.1240   1.1457   1.1469   1.1515   1.1699
  1.1785   1.1875   1.1969   1.2142   1.2336   1.2483   1.2533   1.2772
  1.2905   1.2954   1.3024   1.3078   1.3293   1.3455   1.3566   1.3748
  1.3883   1.3922   1.4025   1.4247   1.4294   1.4374   1.4429   1.4611
  1.4817   1.4832   1.5011   1.5058   1.5261   1.5278   1.5683   1.5752
  1.5799   1.6063   1.6314   1.6628   1.6789   1.6835   1.6932   1.7024
  1.7127   1.7247   1.7358   1.7498   1.7518   1.7660   1.7937   1.7988
  1.8280   1.8451   1.9574   1.9709   2.0000   2.0163   2.0331   2.0569
  2.0804   2.0895   2.1346   2.1392   2.1712   2.2310   2.2468   2.2754
  2.2880   2.2965   2.3643   2.3957   2.4180   2.4221   2.4545   2.4957
  2.5045   2.5581   2.7010   2.7051   2.7564   2.7792   2.8136   2.8357
  2.8408   2.8526   2.8937   2.9016   2.9080   2.9202   2.9266   2.9332
  2.9473   2.9519   2.9952   2.9995   3.0129   3.0245   3.0559   3.0601
  3.0674   3.0710   3.0968   3.1152   3.1299   3.1411   3.1636   3.1845
  3.2058   3.2160   3.2394   3.2633   3.2749   3.2826   3.2906   3.2941
  3.3114   3.3148   3.3242   3.3493   3.3608   3.3783   3.4103   3.4152
  3.4314   3.4408   3.4650   3.4768   3.4913   3.5170   3.5373   3.5833
  3.5910   3.6042   3.6060   3.6326   3.6470   3.6588   3.6819   3.7041
  3.7152   3.7427   3.7516   3.7563   3.7649   3.7829   3.7954   3.8229
  3.8277   3.8654   3.8707   3.8804   3.9253   3.9333   4.0036   4.0101
  4.0125   4.0211   4.0368   4.0532   4.0669   4.0720   4.1203   4.1251
  4.1462   4.1555   4.1611   4.1902   4.1935   4.2030   4.2287   4.2479
  4.2518   4.2582   4.2664   4.2676   4.2860   4.2956   4.3105   4.3354
  4.3584   4.3710   4.3953   4.4015   4.4225   4.4435   4.4762   4.4776
  4.4965   4.5092   4.5266   4.5376   4.5563   4.5725   4.6424   4.6611
  4.6944   4.7081   4.7254   4.7426   4.7509   4.7578   4.8115   4.8177
  4.8398   4.8511   4.9494   4.9507   4.9866   4.9922   5.0076   5.0140
  5.0470   5.0638   5.0702   5.0839   5.1594   5.1684   5.2330   5.2607
  5.3052   5.3205   5.3451   5.3804   5.4195   5.4237   5.4282   5.4322
  5.4485   5.4654   5.4746   5.5052   5.5260   5.5399   5.5997   5.6110
  5.6275   5.6441   5.6850   5.7095   5.7399   5.7410   5.7536   5.7830
  5.8225   5.8361   5.9035   5.9117   6.1181   6.1193   6.2922   6.3020
  6.6760   6.6858   6.8268   6.8459   6.8968   6.9072   6.9891   7.0185
  7.0843   7.1010   7.3899   7.4080   7.5645   7.5668   7.8155   7.8216
 23.7805  23.8335  24.0669  24.0709  44.7551  44.7842
 --------------------------------------------------------------
 
          Ground-State Mulliken Net Atomic Charges

     Atom                 Charge (a.u.)
  ----------------------------------------
      1 C                    -0.931199
      2 C                    -0.202345
      3 O                    -0.353575
      4 H                     0.106210
      5 H                     0.261140
      6 H                     0.326211
      7 H                     0.253675
      8 H                     0.355325
      9 H                     0.186609
     10 C                    -0.932369
     11 C                    -0.193622
     12 O                    -0.354436
     13 H                     0.109483
     14 H                     0.257375
     15 H                     0.254525
     16 H                     0.332678
     17 H                     0.167671
     18 H                     0.356642
  ----------------------------------------
  Sum of atomic charges =     0.000000

 -----------------------------------------------------------------
                    Cartesian Multipole Moments
 -----------------------------------------------------------------
    Charge (ESU x 10^10)
                 0.0000
    Dipole Moment (Debye)
         X      -0.0467      Y       0.0692      Z       0.0559
       Tot       0.1005
    Quadrupole Moments (Debye-Ang)
        XX     -31.6393     XY      -2.5747     YY     -42.7465
        XZ      -1.7715     YZ       2.1626     ZZ     -39.5535
    Octopole Moments (Debye-Ang^2)
       XXX       0.7720    XXY       0.1332    XYY      -0.9095
       YYY       1.0796    XXZ      -0.8574    XYZ       0.0417
       YYZ       0.2776    XZZ       0.5379    YZZ      -0.1996
       ZZZ      -0.5975
    Hexadecapole Moments (Debye-Ang^3)
      XXXX    -832.5449   XXXY     -58.7293   XXYY    -173.4447
      XYYY     -24.6146   YYYY    -290.1644   XXXZ     -20.6066
      XXYZ      18.7716   XYYZ      -9.5457   YYYZ      17.4037
      XXZZ    -159.4646   XYZZ     -12.0725   YYZZ     -62.4035
      XZZZ      -3.5111   YZZZ       5.5963   ZZZZ    -120.6254
 -----------------------------------------------------------------
 Total job time:  1541.76s(wall), 5666.97s(cpu) 
 Fri Feb 28 11:18:26 2025

        *************************************************************
        *                                                           *
        *  Thank you very much for using Q-Chem.  Have a nice day.  *
        *                                                           *
        *************************************************************


