
Running Job 1 of 1 004_ethanol_dimer_46_almo.inp
qchem 004_ethanol_dimer_46_almo.inp_145255.0 /scratch/qchem145255/ 6
/home/kchung25/qchem/5.4.0/exe/qcprog.exe_s 004_ethanol_dimer_46_almo.inp_145255.0 /scratch/qchem145255/
                  Welcome to Q-Chem
     A Quantum Leap Into The Future Of Chemistry


 Q-Chem 5.4, Q-Chem, Inc., Pleasanton, CA (2021)

 E. Epifanovsky,  A. T. B. Gilbert,  Xintian Feng,  Joonho Lee,  Yuezhi Mao,  
 N. Mardirossian,  P. Pokhilko,  A. White,  M. Wormit,  M. P. Coons,  
 A. L. Dempwolff,  Zhengting Gan,  D. Hait,  P. R. Horn,  L. D. Jacobson,  
 I. Kaliman,  J. Kussmann,  A. W. Lange,  Ka Un Lao,  D. S. Levine,  Jie Liu,  
 S. C. McKenzie,  A. F. Morrison,  K. Nanda,  F. Plasser,  D. R. Rehn,  
 M. L. Vidal,  Zhi-Qiang You,  Ying Zhu,  B. Alam,  B. Albrecht,  
 A. Aldossary,  E. Alguire,  J. H. Andersen,  D. Barton,  K. Begam,  A. Behn,  
 Y. A. Bernard,  E. J. Berquist,  H. Burton,  A. Carreras,  K. Carter-Fenk,  
 Romit Chakraborty,  A. D. Chien,  K. D. Closser,  V. Cofer-Shabica,  
 S. Dasgupta,  Jia Deng,  M. de Wergifosse,  M. Diedenhofen,  Hainam Do,  
 S. Ehlert,  Po-Tung Fang,  S. Fatehi,  Qingguo Feng,  T. Friedhoff,  
 J. Gayvert,  Qinghui Ge,  G. Gidofalvi,  M. Goldey,  J. Gomes,  
 C. Gonzalez-Espinoza,  S. Gulania,  A. Gunina,  M. W. D. Hanson-Heine,  
 P. H. P. Harbach,  A. W. Hauser,  M. F. Herbst,  M. Hernandez Vera,  
 M. Hodecker,  Z. C. Holden,  S. Houck,  Xunkun Huang,  Kerwin Hui,  
 B. C. Huynh,  M. Ivanov,  Hyunjun Ji,  Hanjie Jiang,  B. Kaduk,  S. Kaehler,  
 K. Khistyaev,  Jaehoon Kim,  P. Klunzinger,  Z. Koczor-Benda,  
 Joong Hoon Koh,  D. Kosenkov,  L. Koulias,  T. Kowalczyk,  C. M. Krauter,  
 K. Kue,  A. Kunitsa,  T. Kus,  A. Landau,  K. V. Lawler,  D. Lefrancois,  
 S. Lehtola,  Rain Li,  Yi-Pei Li,  Jiashu Liang,  M. Liebenthal,  
 Hung-Hsuan Lin,  You-Sheng Lin,  Fenglai Liu,  Kuan-Yu Liu,  
 M. Loipersberger,  A. Luenser,  A. Manjanath,  P. Manohar,  E. Mansoor,  
 S. F. Manzer,  Shan-Ping Mao,  A. V. Marenich,  T. Markovich,  S. Mason,  
 S. A. Maurer,  P. F. McLaughlin,  M. F. S. J. Menger,  J.-M. Mewes,  
 S. A. Mewes,  P. Morgante,  J. W. Mullinax,  K. J. Oosterbaan,  G. Paran,  
 Alexander C. Paul,  Suranjan K. Paul,  F. Pavosevic,  Zheng Pei,  S. Prager,  
 E. I. Proynov,  E. Ramos,  B. Rana,  A. E. Rask,  A. Rettig,  R. M. Richard,  
 F. Rob,  E. Rossomme,  T. Scheele,  M. Scheurer,  M. Schneider,  
 N. Sergueev,  S. M. Sharada,  W. Skomorowski,  D. W. Small,  C. J. Stein,  
 Yu-Chuan Su,  E. J. Sundstrom,  Zhen Tao,  J. Thirman,  T. Tsuchimochi,  
 N. M. Tubman,  S. P. Veccham,  O. Vydrov,  J. Wenzel,  J. Witte,  A. Yamada,  
 Kun Yao,  S. Yeganeh,  S. R. Yost,  A. Zech,  Igor Ying Zhang,  Xing Zhang,  
 Yu Zhang,  D. Zuev,  A. Aspuru-Guzik,  A. T. Bell,  N. A. Besley,  
 K. B. Bravaya,  B. R. Brooks,  D. Casanova,  Jeng-Da Chai,  S. Coriani,  
 C. J. Cramer,  A. E. DePrince, III,  R. A. DiStasio Jr.,  A. Dreuw,  
 B. D. Dunietz,  T. R. Furlani,  W. A. Goddard III,  S. Grimme,  
 S. Hammes-Schiffer,  T. Head-Gordon,  W. J. Hehre,  Chao-Ping Hsu,  
 T.-C. Jagau,  Yousung Jung,  A. Klamt,  Jing Kong,  D. S. Lambrecht,  
 WanZhen Liang,  N. J. Mayhall,  C. W. McCurdy,  J. B. Neaton,  T. Neudecker,  
 C. Ochsenfeld,  J. A. Parkhill,  R. Peverati,  V. A. Rassolov,  Yihan Shao,  
 L. V. Slipchenko,  R. P. Steele,  J. E. Subotnik,  A. J. W. Thom,  
 A. Tkatchenko,  D. G. Truhlar,  T. Van Voorhis,  T. A. Wesolowski,  
 K. B. Whaley,  H. L. Woodcock III,  P. M. Zimmerman,  S. Faraji,  
 P. M. W. Gill,  M. Head-Gordon,  J. M. Herbert,  A. I. Krylov

 Additional authors since Version 5.4.0: 
 Chandrima Chakravarty,  L. Cunha,  R. Kang,  Yongbin Kim,  S. Kotaru,  
 Shaozhi Li,  Xiangyuan Li,  F. Matz,  A. Molle,  V. Parravicini,  
 Haisheng Ren,  Hengyuan Shen,  Yingli Su,  Hung-Yi Tsai,  C. Utku,  
 Fang Wang,  Jeff Yang,  F. Zeller

 Contributors to earlier versions of Q-Chem not listed above: 
 R. D. Adamson,  B. Austin,  R. Baer,  J. Baker,  G. J. O. Beran,  
 K. Brandhorst,  S. T. Brown,  E. F. C. Byrd,  Arup K. Chakraborty,  
 G. K. L. Chan,  Chun-Min Chang,  Yunqing Chen,  C.-L. Cheng,  
 Siu Hung Chien,  D. M. Chipman,  D. L. Crittenden,  H. Dachsel,  
 R. J. Doerksen,  A. D. Dutoi,  R. G. Edgar,  J. Fosso-Tande,  
 L. Fusti-Molnar,  D. Ghosh,  A. Ghysels,  A. Golubeva-Zadorozhnaya,  
 J. Gonthier,  M. S. Gordon,  S. R. Gwaltney,  G. Hawkins,  J. E. Herr,  
 A. Heyden,  S. Hirata,  E. G. Hohenstein,  G. Kedziora,  F. J. Keil,  
 C. Kelley,  Jihan Kim,  R. A. King,  R. Z. Khaliullin,  P. P. Korambath,  
 W. Kurlancheek,  A. Laurent,  A. M. Lee,  M. S. Lee,  S. V. Levchenko,  
 Ching Yeh Lin,  D. Liotard,  E. Livshits,  R. C. Lochan,  I. Lotan,  
 L. A. Martinez-Martinez,  P. E. Maslen,  N. Nair,  D. P. O'Neill,  
 D. Neuhauser,  E. Neuscamman,  C. M. Oana,  R. Olivares-Amaya,  R. Olson,  
 T. M. Perrine,  B. Peters,  P. A. Pieniazek,  A. Prociuk,  Y. M. Rhee,  
 J. Ritchie,  M. A. Rohrdanz,  E. Rosta,  N. J. Russ,  H. F. Schaefer III,  
 M. W. Schmidt,  N. E. Schultz,  S. Sharma,  N. Shenvi,  C. D. Sherrill,  
 A. C. Simmonett,  A. Sodt,  T. Stein,  D. Stuck,  K. S. Thanthiriwatte,  
 V. Vanovschi,  L. Vogt,  Tao Wang,  A. Warshel,  M. A. Watson,  
 C. F. Williams,  Q. Wu,  X. Xu,  Jun Yang,  W. Zhang,  Yan Zhao

   Please cite Q-Chem as follows:
  "Software for the frontiers of quantum chemistry:
   An overview of developments in the Q-Chem 5 package"
   J. Chem. Phys. 155, 084801 (2021)
   https://doi.org/10.1063/5.0055522 (open access)

 Q-Chem 5.4.2 for Intel X86 EM64T Linux

 Parts of Q-Chem use Armadillo 9.900.5 (Nocturnal Misbehaviour).
 http://arma.sourceforge.net/

 Q-Chem begins on Fri Feb 28 18:55:17 2025  

 Host: 
0

     Scratch files written to /scratch/qchem145255//
 Dec1321 |scratch|qcdevops|jenkins|workspace|build_RNUM 5684   
 Processing $rem in /home/kchung25/qchem/5.4.0/config/preferences:
 Processing $rem in /home/kchung25/.qchemrc:

 Q-Chem warning in module libgen/rem_setup.C, line 3079:

 Neither GIA nor STOLL is specified by user. Use STOLL as the default


 Checking the input file for inconsistencies... 	...done.

--------------------------------------------------------------
User input:
--------------------------------------------------------------
$molecule
0 1
--
0 1
C    1.664047  -1.098168  -0.483407
C    1.645436   0.172621   0.316483
O    2.803731   0.913154  -0.006258
H    2.810292   1.720736   0.510250
H    0.786578  -1.702859  -0.249187
H    2.561646  -1.677310  -0.258297
H    1.668226  -0.876731  -1.553158
H    1.608592  -0.061279   1.389819
H    0.733727   0.745832   0.090323
--
0 1
C   -2.523852   1.090249  -0.196029
C   -1.977141  -0.294805  -0.431995
O   -1.428621  -0.864125   0.736200
H   -2.110319  -0.890671   1.412321
H   -2.907636   1.526431  -1.120447
H   -1.745682   1.746778   0.199147
H   -3.345613   1.068408   0.525988
H   -1.158836  -0.264706  -1.157724
H   -2.752790  -0.946241  -0.858887
$end

$rem
JOBTYPE          eda
EDA2             1
METHOD           wB97M-V
BASIS            def2-TZVPPD
SYMMETRY         false
MEM_TOTAL        50000
MEM_STATIC       10000
THRESH           14
SCF_CONVERGENCE  8
XC_GRID          000099000590
NL_GRID          1
EDA_CLS_DISP     true
FD_MAT_VEC_PROD  FALSE
$end
--------------------------------------------------------------
 ----------------------------------------------------------------
             Standard Nuclear Orientation (Angstroms)
    I     Atom           X                Y                Z
 ----------------------------------------------------------------
    1      C       1.6640468063    -1.0981680002    -0.4834073457
    2      C       1.6454359071     0.1726206331     0.3164832392
    3      O       2.8037310055     0.9131536534    -0.0062573612
    4      H       2.8102920691     1.7207354145     0.5102510115
    5      H       0.7865777274    -1.7028590108    -0.2491876686
    6      H       2.5616457307    -1.6773102036    -0.2582975676
    7      H       1.6682258846    -0.8767305075    -1.5531582434
    8      H       1.6085918272    -0.0612798577     1.3898191295
    9      H       0.7337269821     0.7458318385     0.0903234577
   10      C      -2.5238519653     1.0902493319    -0.1960285473
   11      C      -1.9771411071    -0.2948046199    -0.4319951584
   12      O      -1.4286212290    -0.8641252194     0.7361996067
   13      H      -2.1103192660    -0.8906714555     1.4123205602
   14      H      -2.9076358705     1.5264318007    -1.1204463655
   15      H      -1.7456819124     1.7467780634     0.1991477945
   16      H      -3.3456130041     1.0684080902     0.5259884013
   17      H      -1.1588360673    -0.2647053761    -1.1577241034
   18      H      -2.7527901580    -0.9462403371    -0.8588874977
 ----------------------------------------------------------------
 Molecular Point Group                 C1    NOp =  1
 Largest Abelian Subgroup              C1    NOp =  1
 Nuclear Repulsion Energy =         250.41656985 hartrees
 There are       26 alpha and       26 beta electrons
 Requested basis set is def2-TZVPPD
 There are 164 shells and 432 basis functions

 Q-Chem warning in module libmdc/get_mega.C, line 171:

 Allowed MEM_STATIC has been capped at MEM_STATIC=8191.
 Reduce the value of MEM_STATIC to silence this warning.


 Total QAlloc Memory Limit  50000 MB
 Mega-Array Size      8007 MB
 MEM_STATIC part      8191 MB
 A cutoff of  1.0D-14 yielded  12385 shell pairs
 There are     85197 function pairs (    104708 Cartesian)
 Smallest overlap matrix eigenvalue = 4.36E-06

 Scale SEOQF with 1.000000e-01/1.000000e-01/1.000000e-01

 Standard Electronic Orientation quadrupole field applied
 Nucleus-field energy     =     0.0000000096 hartrees

 -----------------------------------------------------------------------
  General SCF calculation program by
  Eric Jon Sundstrom, Paul Horn, Yuezhi Mao, Dmitri Zuev, Alec White,
  David Stuck, Shaama M.S., Shane Yost, Joonho Lee, David Small,
  Daniel Levine, Susi Lehtola, Hugh Burton, Evgeny Epifanovsky,
  Bang C. Huynh
 -----------------------------------------------------------------------
================================================================
                 ALMO-EDA with the EDA2 driver                  
================================================================
 The second-generation ALMO-EDA (for DFT):                      
 P. R. Horn, Y. Mao and M. Head-Gordon, PCCP, 18, 23067 (2016)  
 Y. Mao et al. Annu. Rev. Phys. Chem. 72, 641 (2021)            
 Decomposition of the frozen energy:                            
 P. R. Horn, Y. Mao and M. Head-Gordon, JCP, 144, 114107 (2016) 
 FERF model for polarization:                                   
 P. R. Horn and M. Head-Gordon, JCP, 143, 114111 (2015)         
================================================================
 Using eda2 option set 1
 Option set summary: Frozen orbital wavefunction, initial wavefunction decomposition, and nDQ polarization.
--------------------------------
Printing EDA Options
--------------------------------
eda_child_super_basis      0
fragmo_guess_mode          0
child_mp                   1
child_mp_orders            232
cls_elec                   1
cls_disp                   1
scfmi_mode                 1
scfmi_occs                 0
scfmi_virts                0
frz_relax                  0
frz_relax_method           0
dc_pen_start               0
dc_pen_conv                0
dc_pen_increment           0
dc_pen_steps               0
dc_pen_thresh_factor       0
dc_pen_pre_newton_thresh   0
frz_ortho_decomp           1
frz_ortho_decomp_conv      6
plot_mo_ortho_frz          0
frgm_method                2
scfmi_freeze_ss            0
separate_rehyb             0
plot_diff_den              0
eda_nocv                   0
eda_vct_relax              1
disp_free_x                0
disp_free_c                0
eda_bsse                   0
eda_pct_a                  0
eda_covp                   0
--------------------------------
Attempting to make child job directory: /scratch/qchem145255//Frg1/
Attempting to make child job directory: /scratch/qchem145255//Frg2/
Creating input file /scratch/qchem145255/Frg1.input
using default PutDataFrgm: nothing
calling putenv with: QCSCRATCH=/scratch/qchem145255/ 
Spawning Job For Fragment 0
Done Job For Fragment 0
calling putenv with: QCSCRATCH=/scratch 
calling putenv with: QCTHREADS=6 
Creating input file /scratch/qchem145255/Frg2.input
using default PutDataFrgm: nothing
calling putenv with: QCSCRATCH=/scratch/qchem145255/ 
Spawning Job For Fragment 1
Done Job For Fragment 1
calling putenv with: QCSCRATCH=/scratch 
calling putenv with: QCTHREADS=6 
Doing General SCFMI
 Exchange:     0.1500 Hartree-Fock + 1.0000 wB97M-V + LR-HF
 Correlation:  1.0000 wB97M-V
 Using Euler-Maclaurin-Lebedev (99,590) quadrature formula
 Nonlocal Correlation:  VV10 with C = 0.0100 and b = 6.00 and scale = 1.00000
 Grid used for NLC:  SG-1 standard quadrature
performing fock build before subrot guess so that all methods have access
Printing subrot_rss_gen Method Specification:
Occupied Subspace Method is 0
Virtual Subspace Method is 0
Energy of the unrelaxed supersystem initial determinant -310.060931907560
write pseudocanon occs and virts to disk
write pseudocanon orbital energies to disk
Tolerance of ortho_decomp_scf: 1.00e-06
GDM subspace size: 20
Beginning the Orthogonal Decomposition of the Initial Supersystem Wavefunction
    1    -310.0392202912      6.06e-02     ortho_decomp Preconditoned Steepest Descent
    2    -310.0427037576      1.62e-03     ortho_decomp BFGS Step
    3    -310.0427179273      1.30e-04     ortho_decomp BFGS Step
    4    -310.0427179472      4.91e-06     ortho_decomp BFGS Step
    5    -310.0427179472      1.54e-07     ortho_decomp 00000 Convergence criterion met
 Hartree-Fock
 Hartree-Fock
 Hartree-Fock
 Exchange:     0.1500 Hartree-Fock + 1.0000 wB97M-V + LR-HF
 Correlation:  1.0000 wB97M-V
 Using Euler-Maclaurin-Lebedev (99,590) quadrature formula
 Nonlocal Correlation:  VV10 with C = 0.0100 and b = 6.00 and scale = 1.00000
 Grid used for NLC:  SG-1 standard quadrature
 Long-range K will be added via erf
 Coulomb attenuation parameter = 0.3 bohr**(-1)
 Nonlocal correlation = 2.043364300790e-01
Doing General SCFMI
 Exchange:     0.1500 Hartree-Fock + 1.0000 wB97M-V + LR-HF
 Correlation:  1.0000 wB97M-V
 Using Euler-Maclaurin-Lebedev (99,590) quadrature formula
 Nonlocal Correlation:  VV10 with C = 0.0100 and b = 6.00 and scale = 1.00000
 Grid used for NLC:  SG-1 standard quadrature
performing fock build at end of subrot_r(subrot) constructor so that all methods have access
<S^2> of initial wavefunction before polarization iterations 0.0000000000
Beginning iterations for the determination of the polarized wavefunction
Energy prior to optimization (guess energy) = -310.060931907560
Begin Timing: Total SCF Calculation
begin iterations for algorithm: DIIS         
the SCF tolerance is set to 1.00e-08
    1    -310.0609319076      1.38e-04     00000 
    2    -310.0614609798      5.69e-05     00000 
    3    -310.0615072496      3.25e-05     00000 
    4    -310.0615213519      1.04e-05     00000 
    5    -310.0615232789      3.16e-06     00000 
    6    -310.0615236376      1.55e-06     00000 
    7    -310.0615237225      5.54e-07     00000 
    8    -310.0615237356      1.65e-07     00000 
    9    -310.0615237362      8.81e-08     00000 
   10    -310.0615237363      4.00e-08     00000 
   11    -310.0615237363      1.59e-08     00000 
   12    -310.0615237363      6.62e-09     00000 Convergence criterion met
write pseudocanon occs and virts to disk
write pseudocanon orbital energies to disk
Timing for Total SCF: 283.00s (wall), 1699.90s (cpu)
<S^2> of polarized wavefunction after polarization iterations 0.0000000000
relaxing scfmi constraint to allow all rotations in the entire AO span
Doing General SCFMI
 Exchange:     0.1500 Hartree-Fock + 1.0000 wB97M-V + LR-HF
 Correlation:  1.0000 wB97M-V
 Using Euler-Maclaurin-Lebedev (99,590) quadrature formula
 Nonlocal Correlation:  VV10 with C = 0.0100 and b = 6.00 and scale = 1.00000
 Grid used for NLC:  SG-1 standard quadrature
performing fock build at end of subrot_r(subrot) constructor so that all methods have access
<S^2> of polarized wavefunction before ct-allowed iterations 0.0000000000
Beginning iterations for the determination of the CT-Allowed wavefunction
Energy prior to optimization (guess energy) = -310.061523736312
Begin Timing: Total SCF Calculation
begin iterations for algorithm: DIIS         
the SCF tolerance is set to 1.00e-08
    1    -310.0615237363      8.40e-05     00000 
    2    -310.0622311019      9.50e-06     00000 
    3    -310.0622510070      2.20e-06     00000 
    4    -310.0622514703      1.77e-06     00000 
    5    -310.0622516797      2.52e-07     00000 
    6    -310.0622516852      8.29e-08     00000 
    7    -310.0622516860      2.13e-08     00000 
    8    -310.0622516861      4.85e-09     00000 Convergence criterion met
write pseudocanon occs and virts to disk
write pseudocanon orbital energies to disk
Timing for Total SCF: 182.00s (wall), 1090.57s (cpu)
<S^2> of ct_allowed wavefunction after ct-allowed iterations 0.0000000000

================================
        Results of EDA2         
================================
Basic EDA Quantities
--------------------
Fragment Energies (Ha):
1 -155.0295671130
2 -155.0294422681
--------------------
  E_prp (kJ/mol) = 0.0000
  E_frz (kJ/mol) = -5.0477
  E_pol (kJ/mol) = -1.5539
  E_vct (kJ/mol) = -1.9113
  E_int (kJ/mol) = -8.5128
--------------------


Decomposition of frozen interaction energy
--------------------
  --------------------
  Orthogonal Frozen Decomposition:
  --------------------
     E_elec   (ELEC)   (kJ/mol) = -23.7379
     E_pauli  (PAULI)  (kJ/mol) = 32.6327
     E_disp   (DISP)   (kJ/mol) = -13.9424
  --------------------
  Classical Frozen Decomposition:
  --------------------
     E_cls_elec  (CLS ELEC)  (kJ/mol) = -9.2897
     E_mod_pauli (MOD PAULI) (kJ/mol) = 16.4598 (FRZ - CLS ELEC - CLS DISP)
     E_cls_disp  (CLS DISP)  (kJ/mol) = -12.2178
  --------------------
--------------------

Simplified EDA Summary (kJ/mol)
--------------------
 PREPARATION      0.0000
 FROZEN           -5.0477 (ELEC + PAULI + DISP)
[ELEC + PAULI = 7.1701, DISP = -12.2178]
 POLARIZATION    -1.5539
 CHARGE TRANSFER -1.9113
 TOTAL           -8.5128     (PRP + FRZ + POL + CT)
--------------------
 
 --------------------------------------------------------------
 
                    Orbital Energies (a.u.)
 --------------------------------------------------------------
 
 Alpha MOs
 -- Occupied --
-19.3379 -19.3221 -10.3916 -10.3744 -10.3385 -10.3143  -1.1599  -1.1431
 -0.8777  -0.8615  -0.7485  -0.7143  -0.6278  -0.6157  -0.5722  -0.5623
 -0.5512  -0.5019  -0.4912  -0.4820  -0.4664  -0.4556  -0.4341  -0.4260
 -0.3877  -0.3684
 -- Virtual --
  0.0284   0.0446   0.0555   0.0559   0.0776   0.0845   0.0904   0.1027
  0.1074   0.1155   0.1305   0.1386   0.1403   0.1537   0.1600   0.1669
  0.1727   0.1815   0.1941   0.1958   0.2012   0.2124   0.2138   0.2291
  0.2326   0.2364   0.2537   0.2611   0.2661   0.2748   0.2843   0.2845
  0.2885   0.2892   0.2980   0.3032   0.3084   0.3114   0.3202   0.3305
  0.3323   0.3364   0.3388   0.3447   0.3490   0.3504   0.3522   0.3620
  0.3657   0.3774   0.3788   0.3847   0.3877   0.3935   0.3943   0.3993
  0.4141   0.4188   0.4273   0.4316   0.4419   0.4432   0.4499   0.4547
  0.4599   0.4668   0.4744   0.4794   0.4843   0.4959   0.4978   0.5052
  0.5144   0.5200   0.5277   0.5385   0.5421   0.5461   0.5563   0.5632
  0.5705   0.5782   0.5870   0.5941   0.6070   0.6234   0.6292   0.6422
  0.6448   0.6627   0.6675   0.6793   0.6852   0.6910   0.7022   0.7103
  0.7229   0.7336   0.7407   0.7446   0.7478   0.7522   0.7580   0.7651
  0.7744   0.7834   0.7861   0.7946   0.7991   0.8016   0.8147   0.8275
  0.8307   0.8511   0.8610   0.8864   0.8905   0.8977   0.9182   0.9356
  0.9431   0.9528   0.9744   0.9807   1.0033   1.0082   1.0346   1.0579
  1.0655   1.0780   1.0855   1.1081   1.1212   1.1271   1.1375   1.1562
  1.1863   1.2017   1.2066   1.2180   1.2368   1.2523   1.2584   1.2652
  1.2673   1.2702   1.2771   1.2914   1.3050   1.3136   1.3166   1.3453
  1.3617   1.3693   1.3856   1.4038   1.4197   1.4228   1.4251   1.4429
  1.4652   1.4696   1.4778   1.5078   1.5292   1.5429   1.5558   1.5768
  1.5866   1.5994   1.6242   1.6492   1.6590   1.6643   1.6845   1.6920
  1.6947   1.7132   1.7203   1.7263   1.7357   1.7594   1.7931   1.8134
  1.8174   1.8308   1.9403   1.9643   1.9825   1.9888   2.0165   2.0491
  2.0738   2.1065   2.1157   2.1478   2.1817   2.2005   2.2216   2.2597
  2.2791   2.3043   2.3468   2.3614   2.3912   2.4152   2.4539   2.4608
  2.4976   2.5436   2.6812   2.7171   2.7410   2.7498   2.7907   2.8139
  2.8226   2.8751   2.8908   2.8918   2.9096   2.9146   2.9321   2.9439
  2.9562   2.9739   2.9788   2.9946   3.0089   3.0231   3.0374   3.0477
  3.0669   3.0839   3.0900   3.1002   3.1359   3.1567   3.1619   3.1757
  3.1920   3.2157   3.2308   3.2406   3.2511   3.2622   3.2717   3.2860
  3.2964   3.3104   3.3188   3.3297   3.3358   3.3439   3.3713   3.3864
  3.4123   3.4261   3.4525   3.4820   3.5125   3.5181   3.5317   3.5704
  3.5821   3.5857   3.5913   3.6038   3.6135   3.6300   3.6489   3.6782
  3.7125   3.7346   3.7402   3.7419   3.7570   3.7629   3.7919   3.7954
  3.8263   3.8341   3.8601   3.9087   3.9314   3.9510   3.9871   4.0081
  4.0221   4.0325   4.0383   4.0492   4.0630   4.0973   4.1047   4.1181
  4.1276   4.1404   4.1484   4.1595   4.1639   4.1946   4.2004   4.2212
  4.2334   4.2417   4.2633   4.2769   4.2807   4.2936   4.3071   4.3198
  4.3326   4.3542   4.3855   4.4142   4.4286   4.4403   4.4507   4.4758
  4.4860   4.5076   4.5134   4.5421   4.5708   4.5785   4.5994   4.6167
  4.6736   4.6848   4.7016   4.7206   4.7357   4.7546   4.8050   4.8092
  4.8660   4.8947   4.9330   4.9432   4.9573   4.9680   4.9905   5.0057
  5.0290   5.0429   5.0656   5.0790   5.1294   5.1424   5.2260   5.2738
  5.2997   5.3078   5.3362   5.3510   5.3947   5.4127   5.4212   5.4385
  5.4485   5.4573   5.4756   5.4971   5.5079   5.5468   5.5711   5.5841
  5.6120   5.6554   5.6748   5.6981   5.7271   5.7427   5.7808   5.8033
  5.8171   5.8544   5.8988   5.9705   6.1109   6.1285   6.2605   6.2902
  6.6714   6.6863   6.8259   6.8292   6.8888   6.8994   6.9591   7.0054
  7.0582   7.0767   7.3670   7.3966   7.5498   7.5676   7.7939   7.8301
 23.7711  23.8017  24.0463  24.1114  44.7557  44.8541
 --------------------------------------------------------------
 
          Ground-State Mulliken Net Atomic Charges

     Atom                 Charge (a.u.)
  ----------------------------------------
      1 C                    -1.048619
      2 C                     0.210600
      3 O                    -0.409728
      4 H                     0.127967
      5 H                     0.268522
      6 H                     0.330511
      7 H                     0.259083
      8 H                     0.273778
      9 H                    -0.003077
     10 C                    -0.967104
     11 C                    -0.235389
     12 O                    -0.345853
     13 H                     0.101400
     14 H                     0.276112
     15 H                     0.272065
     16 H                     0.283320
     17 H                     0.233217
     18 H                     0.373196
  ----------------------------------------
  Sum of atomic charges =     0.000000

 -----------------------------------------------------------------
                    Cartesian Multipole Moments
 -----------------------------------------------------------------
    Charge (ESU x 10^10)
                 0.0000
    Dipole Moment (Debye)
         X      -2.9581      Y       0.9516      Z       0.9455
       Tot       3.2481
    Quadrupole Moments (Debye-Ang)
        XX     -41.3270     XY       1.2836     YY     -39.2728
        XZ       1.5568     YZ       1.3623     ZZ     -38.6128
    Octopole Moments (Debye-Ang^2)
       XXX     -34.6174    XXY      -1.3272    XYY       9.4993
       YYY       9.3469    XXZ      15.1572    XYZ       7.3021
       YYZ       4.7485    XZZ      -3.7588    YZZ      -0.7585
       ZZZ       7.4281
    Hexadecapole Moments (Debye-Ang^3)
      XXXX   -1167.8174   XXXY      32.0607   XXYY    -205.1781
      XYYY      38.6466   YYYY    -250.5141   XXXZ       1.7276
      XXYZ       5.9401   XYYZ       8.8166   YYYZ       3.0341
      XXZZ    -191.2131   XYZZ      11.5230   YYZZ     -61.8508
      XZZZ     -10.9250   YZZZ      -7.4456   ZZZZ    -115.5303
 -----------------------------------------------------------------
 Total job time:  1488.28s(wall), 5418.04s(cpu) 
 Fri Feb 28 19:20:05 2025

        *************************************************************
        *                                                           *
        *  Thank you very much for using Q-Chem.  Have a nice day.  *
        *                                                           *
        *************************************************************


