
Running Job 1 of 1 004_ethanol_dimer_69_almo.inp
qchem 004_ethanol_dimer_69_almo.inp_171457.0 /scratch/qchem171457/ 6
/home/kchung25/qchem/5.4.0/exe/qcprog.exe_s 004_ethanol_dimer_69_almo.inp_171457.0 /scratch/qchem171457/
                  Welcome to Q-Chem
     A Quantum Leap Into The Future Of Chemistry


 Q-Chem 5.4, Q-Chem, Inc., Pleasanton, CA (2021)

 E. Epifanovsky,  A. T. B. Gilbert,  Xintian Feng,  Joonho Lee,  Yuezhi Mao,  
 N. Mardirossian,  P. Pokhilko,  A. White,  M. Wormit,  M. P. Coons,  
 A. L. Dempwolff,  Zhengting Gan,  D. Hait,  P. R. Horn,  L. D. Jacobson,  
 I. Kaliman,  J. Kussmann,  A. W. Lange,  Ka Un Lao,  D. S. Levine,  Jie Liu,  
 S. C. McKenzie,  A. F. Morrison,  K. Nanda,  F. Plasser,  D. R. Rehn,  
 M. L. Vidal,  Zhi-Qiang You,  Ying Zhu,  B. Alam,  B. Albrecht,  
 A. Aldossary,  E. Alguire,  J. H. Andersen,  D. Barton,  K. Begam,  A. Behn,  
 Y. A. Bernard,  E. J. Berquist,  H. Burton,  A. Carreras,  K. Carter-Fenk,  
 Romit Chakraborty,  A. D. Chien,  K. D. Closser,  V. Cofer-Shabica,  
 S. Dasgupta,  Jia Deng,  M. de Wergifosse,  M. Diedenhofen,  Hainam Do,  
 S. Ehlert,  Po-Tung Fang,  S. Fatehi,  Qingguo Feng,  T. Friedhoff,  
 J. Gayvert,  Qinghui Ge,  G. Gidofalvi,  M. Goldey,  J. Gomes,  
 C. Gonzalez-Espinoza,  S. Gulania,  A. Gunina,  M. W. D. Hanson-Heine,  
 P. H. P. Harbach,  A. W. Hauser,  M. F. Herbst,  M. Hernandez Vera,  
 M. Hodecker,  Z. C. Holden,  S. Houck,  Xunkun Huang,  Kerwin Hui,  
 B. C. Huynh,  M. Ivanov,  Hyunjun Ji,  Hanjie Jiang,  B. Kaduk,  S. Kaehler,  
 K. Khistyaev,  Jaehoon Kim,  P. Klunzinger,  Z. Koczor-Benda,  
 Joong Hoon Koh,  D. Kosenkov,  L. Koulias,  T. Kowalczyk,  C. M. Krauter,  
 K. Kue,  A. Kunitsa,  T. Kus,  A. Landau,  K. V. Lawler,  D. Lefrancois,  
 S. Lehtola,  Rain Li,  Yi-Pei Li,  Jiashu Liang,  M. Liebenthal,  
 Hung-Hsuan Lin,  You-Sheng Lin,  Fenglai Liu,  Kuan-Yu Liu,  
 M. Loipersberger,  A. Luenser,  A. Manjanath,  P. Manohar,  E. Mansoor,  
 S. F. Manzer,  Shan-Ping Mao,  A. V. Marenich,  T. Markovich,  S. Mason,  
 S. A. Maurer,  P. F. McLaughlin,  M. F. S. J. Menger,  J.-M. Mewes,  
 S. A. Mewes,  P. Morgante,  J. W. Mullinax,  K. J. Oosterbaan,  G. Paran,  
 Alexander C. Paul,  Suranjan K. Paul,  F. Pavosevic,  Zheng Pei,  S. Prager,  
 E. I. Proynov,  E. Ramos,  B. Rana,  A. E. Rask,  A. Rettig,  R. M. Richard,  
 F. Rob,  E. Rossomme,  T. Scheele,  M. Scheurer,  M. Schneider,  
 N. Sergueev,  S. M. Sharada,  W. Skomorowski,  D. W. Small,  C. J. Stein,  
 Yu-Chuan Su,  E. J. Sundstrom,  Zhen Tao,  J. Thirman,  T. Tsuchimochi,  
 N. M. Tubman,  S. P. Veccham,  O. Vydrov,  J. Wenzel,  J. Witte,  A. Yamada,  
 Kun Yao,  S. Yeganeh,  S. R. Yost,  A. Zech,  Igor Ying Zhang,  Xing Zhang,  
 Yu Zhang,  D. Zuev,  A. Aspuru-Guzik,  A. T. Bell,  N. A. Besley,  
 K. B. Bravaya,  B. R. Brooks,  D. Casanova,  Jeng-Da Chai,  S. Coriani,  
 C. J. Cramer,  A. E. DePrince, III,  R. A. DiStasio Jr.,  A. Dreuw,  
 B. D. Dunietz,  T. R. Furlani,  W. A. Goddard III,  S. Grimme,  
 S. Hammes-Schiffer,  T. Head-Gordon,  W. J. Hehre,  Chao-Ping Hsu,  
 T.-C. Jagau,  Yousung Jung,  A. Klamt,  Jing Kong,  D. S. Lambrecht,  
 WanZhen Liang,  N. J. Mayhall,  C. W. McCurdy,  J. B. Neaton,  T. Neudecker,  
 C. Ochsenfeld,  J. A. Parkhill,  R. Peverati,  V. A. Rassolov,  Yihan Shao,  
 L. V. Slipchenko,  R. P. Steele,  J. E. Subotnik,  A. J. W. Thom,  
 A. Tkatchenko,  D. G. Truhlar,  T. Van Voorhis,  T. A. Wesolowski,  
 K. B. Whaley,  H. L. Woodcock III,  P. M. Zimmerman,  S. Faraji,  
 P. M. W. Gill,  M. Head-Gordon,  J. M. Herbert,  A. I. Krylov

 Additional authors since Version 5.4.0: 
 Chandrima Chakravarty,  L. Cunha,  R. Kang,  Yongbin Kim,  S. Kotaru,  
 Shaozhi Li,  Xiangyuan Li,  F. Matz,  A. Molle,  V. Parravicini,  
 Haisheng Ren,  Hengyuan Shen,  Yingli Su,  Hung-Yi Tsai,  C. Utku,  
 Fang Wang,  Jeff Yang,  F. Zeller

 Contributors to earlier versions of Q-Chem not listed above: 
 R. D. Adamson,  B. Austin,  R. Baer,  J. Baker,  G. J. O. Beran,  
 K. Brandhorst,  S. T. Brown,  E. F. C. Byrd,  Arup K. Chakraborty,  
 G. K. L. Chan,  Chun-Min Chang,  Yunqing Chen,  C.-L. Cheng,  
 Siu Hung Chien,  D. M. Chipman,  D. L. Crittenden,  H. Dachsel,  
 R. J. Doerksen,  A. D. Dutoi,  R. G. Edgar,  J. Fosso-Tande,  
 L. Fusti-Molnar,  D. Ghosh,  A. Ghysels,  A. Golubeva-Zadorozhnaya,  
 J. Gonthier,  M. S. Gordon,  S. R. Gwaltney,  G. Hawkins,  J. E. Herr,  
 A. Heyden,  S. Hirata,  E. G. Hohenstein,  G. Kedziora,  F. J. Keil,  
 C. Kelley,  Jihan Kim,  R. A. King,  R. Z. Khaliullin,  P. P. Korambath,  
 W. Kurlancheek,  A. Laurent,  A. M. Lee,  M. S. Lee,  S. V. Levchenko,  
 Ching Yeh Lin,  D. Liotard,  E. Livshits,  R. C. Lochan,  I. Lotan,  
 L. A. Martinez-Martinez,  P. E. Maslen,  N. Nair,  D. P. O'Neill,  
 D. Neuhauser,  E. Neuscamman,  C. M. Oana,  R. Olivares-Amaya,  R. Olson,  
 T. M. Perrine,  B. Peters,  P. A. Pieniazek,  A. Prociuk,  Y. M. Rhee,  
 J. Ritchie,  M. A. Rohrdanz,  E. Rosta,  N. J. Russ,  H. F. Schaefer III,  
 M. W. Schmidt,  N. E. Schultz,  S. Sharma,  N. Shenvi,  C. D. Sherrill,  
 A. C. Simmonett,  A. Sodt,  T. Stein,  D. Stuck,  K. S. Thanthiriwatte,  
 V. Vanovschi,  L. Vogt,  Tao Wang,  A. Warshel,  M. A. Watson,  
 C. F. Williams,  Q. Wu,  X. Xu,  Jun Yang,  W. Zhang,  Yan Zhao

   Please cite Q-Chem as follows:
  "Software for the frontiers of quantum chemistry:
   An overview of developments in the Q-Chem 5 package"
   J. Chem. Phys. 155, 084801 (2021)
   https://doi.org/10.1063/5.0055522 (open access)

 Q-Chem 5.4.2 for Intel X86 EM64T Linux

 Parts of Q-Chem use Armadillo 9.900.5 (Nocturnal Misbehaviour).
 http://arma.sourceforge.net/

 Q-Chem begins on Sat Mar  1 04:24:02 2025  

 Host: 
0

     Scratch files written to /scratch/qchem171457//
 Dec1321 |scratch|qcdevops|jenkins|workspace|build_RNUM 5684   
 Processing $rem in /home/kchung25/qchem/5.4.0/config/preferences:
 Processing $rem in /home/kchung25/.qchemrc:

 Q-Chem warning in module libgen/rem_setup.C, line 3079:

 Neither GIA nor STOLL is specified by user. Use STOLL as the default


 Checking the input file for inconsistencies... 	...done.

--------------------------------------------------------------
User input:
--------------------------------------------------------------
$molecule
0 1
--
0 1
C    1.304294   0.360127   0.101275
C    2.514623  -0.517210  -0.088200
O    3.722704   0.211060  -0.086902
H    3.758125   0.727118   0.722329
H    0.378416  -0.218942   0.060467
H    1.267261   1.131795  -0.671121
H    1.338390   0.861527   1.074343
H    2.472433  -1.021838  -1.057015
H    2.533191  -1.307406   0.676953
--
0 1
C   -2.419983   1.192488  -0.059165
C   -3.005409  -0.190353  -0.010925
O   -1.938905  -1.112634   0.050640
H   -2.291843  -2.003829   0.075668
H   -3.207285   1.946380  -0.105419
H   -1.780487   1.306299  -0.936664
H   -1.812361   1.381413   0.828168
H   -3.625825  -0.368260  -0.900919
H   -3.661554  -0.291977   0.865400
$end

$rem
JOBTYPE          eda
EDA2             1
METHOD           wB97M-V
BASIS            def2-TZVPPD
SYMMETRY         false
MEM_TOTAL        50000
MEM_STATIC       10000
THRESH           14
SCF_CONVERGENCE  8
XC_GRID          000099000590
NL_GRID          1
EDA_CLS_DISP     true
FD_MAT_VEC_PROD  FALSE
$end
--------------------------------------------------------------
 ----------------------------------------------------------------
             Standard Nuclear Orientation (Angstroms)
    I     Atom           X                Y                Z
 ----------------------------------------------------------------
    1      C       1.3042939393    -0.3601270198    -0.1012748914
    2      C       2.5146229455     0.5172100077     0.0881999424
    3      O       3.7227039435    -0.2110599957     0.0869020354
    4      H       3.7581249257    -0.7271181264    -0.7223288820
    5      H       0.3784159417     0.2189419892    -0.0604669661
    6      H       1.2672609530    -1.1317948950     0.6711212339
    7      H       1.3383899182    -0.8615271769    -1.0743428112
    8      H       2.4724329664     1.0218381642     1.0570148617
    9      H       2.5331909320     1.3074058841    -0.6769531856
   10      C      -2.4199830596    -1.1924879841     0.0591653186
   11      C      -3.0054090570     0.1903530096     0.0109251072
   12      O      -1.9389050558     1.1126339969    -0.0506400633
   13      H      -2.2918430540     2.0038289938    -0.0756682000
   14      H      -3.2072850606    -1.9463799746     0.1054194563
   15      H      -1.7804870421    -1.3062988441     0.9366643240
   16      H      -1.8123610781    -1.3814131290    -0.8281676633
   17      H      -3.6258250384     0.3682601549     0.9009190911
   18      H      -3.6615540745     0.2919768699    -0.8653998959
 ----------------------------------------------------------------
 Molecular Point Group                 C1    NOp =  1
 Largest Abelian Subgroup              C1    NOp =  1
 Nuclear Repulsion Energy =         237.88302019 hartrees
 There are       26 alpha and       26 beta electrons
 Requested basis set is def2-TZVPPD
 There are 164 shells and 432 basis functions

 Q-Chem warning in module libmdc/get_mega.C, line 171:

 Allowed MEM_STATIC has been capped at MEM_STATIC=8191.
 Reduce the value of MEM_STATIC to silence this warning.


 Total QAlloc Memory Limit  50000 MB
 Mega-Array Size      8007 MB
 MEM_STATIC part      8191 MB
 A cutoff of  1.0D-14 yielded  11887 shell pairs
 There are     80951 function pairs (     99099 Cartesian)
 Smallest overlap matrix eigenvalue = 4.89E-06

 Scale SEOQF with 1.000000e-01/1.000000e-01/1.000000e-01

 Standard Electronic Orientation quadrupole field applied
 Nucleus-field energy     =     0.0000000147 hartrees

 -----------------------------------------------------------------------
  General SCF calculation program by
  Eric Jon Sundstrom, Paul Horn, Yuezhi Mao, Dmitri Zuev, Alec White,
  David Stuck, Shaama M.S., Shane Yost, Joonho Lee, David Small,
  Daniel Levine, Susi Lehtola, Hugh Burton, Evgeny Epifanovsky,
  Bang C. Huynh
 -----------------------------------------------------------------------
================================================================
                 ALMO-EDA with the EDA2 driver                  
================================================================
 The second-generation ALMO-EDA (for DFT):                      
 P. R. Horn, Y. Mao and M. Head-Gordon, PCCP, 18, 23067 (2016)  
 Y. Mao et al. Annu. Rev. Phys. Chem. 72, 641 (2021)            
 Decomposition of the frozen energy:                            
 P. R. Horn, Y. Mao and M. Head-Gordon, JCP, 144, 114107 (2016) 
 FERF model for polarization:                                   
 P. R. Horn and M. Head-Gordon, JCP, 143, 114111 (2015)         
================================================================
 Using eda2 option set 1
 Option set summary: Frozen orbital wavefunction, initial wavefunction decomposition, and nDQ polarization.
--------------------------------
Printing EDA Options
--------------------------------
eda_child_super_basis      0
fragmo_guess_mode          0
child_mp                   1
child_mp_orders            232
cls_elec                   1
cls_disp                   1
scfmi_mode                 1
scfmi_occs                 0
scfmi_virts                0
frz_relax                  0
frz_relax_method           0
dc_pen_start               0
dc_pen_conv                0
dc_pen_increment           0
dc_pen_steps               0
dc_pen_thresh_factor       0
dc_pen_pre_newton_thresh   0
frz_ortho_decomp           1
frz_ortho_decomp_conv      6
plot_mo_ortho_frz          0
frgm_method                2
scfmi_freeze_ss            0
separate_rehyb             0
plot_diff_den              0
eda_nocv                   0
eda_vct_relax              1
disp_free_x                0
disp_free_c                0
eda_bsse                   0
eda_pct_a                  0
eda_covp                   0
--------------------------------
Attempting to make child job directory: /scratch/qchem171457//Frg1/
Attempting to make child job directory: /scratch/qchem171457//Frg2/
Creating input file /scratch/qchem171457/Frg1.input
using default PutDataFrgm: nothing
calling putenv with: QCSCRATCH=/scratch/qchem171457/ 
Spawning Job For Fragment 0
Done Job For Fragment 0
calling putenv with: QCSCRATCH=/scratch 
calling putenv with: QCTHREADS=6 
Creating input file /scratch/qchem171457/Frg2.input
using default PutDataFrgm: nothing
calling putenv with: QCSCRATCH=/scratch/qchem171457/ 
Spawning Job For Fragment 1
Done Job For Fragment 1
calling putenv with: QCSCRATCH=/scratch 
calling putenv with: QCTHREADS=6 
Doing General SCFMI
 Exchange:     0.1500 Hartree-Fock + 1.0000 wB97M-V + LR-HF
 Correlation:  1.0000 wB97M-V
 Using Euler-Maclaurin-Lebedev (99,590) quadrature formula
 Nonlocal Correlation:  VV10 with C = 0.0100 and b = 6.00 and scale = 1.00000
 Grid used for NLC:  SG-1 standard quadrature
performing fock build before subrot guess so that all methods have access
Printing subrot_rss_gen Method Specification:
Occupied Subspace Method is 0
Virtual Subspace Method is 0
Energy of the unrelaxed supersystem initial determinant -310.060475995070
write pseudocanon occs and virts to disk
write pseudocanon orbital energies to disk
Tolerance of ortho_decomp_scf: 1.00e-06
GDM subspace size: 20
Beginning the Orthogonal Decomposition of the Initial Supersystem Wavefunction
    1    -310.0449361017      5.46e-02     ortho_decomp Preconditoned Steepest Descent
    2    -310.0474319354      1.30e-03     ortho_decomp BFGS Step
    3    -310.0474409354      1.13e-04     ortho_decomp BFGS Step
    4    -310.0474409501      4.03e-06     ortho_decomp BFGS Step
    5    -310.0474409501      9.54e-08     ortho_decomp 00000 Convergence criterion met
 Hartree-Fock
 Hartree-Fock
 Hartree-Fock
 Exchange:     0.1500 Hartree-Fock + 1.0000 wB97M-V + LR-HF
 Correlation:  1.0000 wB97M-V
 Using Euler-Maclaurin-Lebedev (99,590) quadrature formula
 Nonlocal Correlation:  VV10 with C = 0.0100 and b = 6.00 and scale = 1.00000
 Grid used for NLC:  SG-1 standard quadrature
 Long-range K will be added via erf
 Coulomb attenuation parameter = 0.3 bohr**(-1)
 Nonlocal correlation = 2.054505861810e-01
Doing General SCFMI
 Exchange:     0.1500 Hartree-Fock + 1.0000 wB97M-V + LR-HF
 Correlation:  1.0000 wB97M-V
 Using Euler-Maclaurin-Lebedev (99,590) quadrature formula
 Nonlocal Correlation:  VV10 with C = 0.0100 and b = 6.00 and scale = 1.00000
 Grid used for NLC:  SG-1 standard quadrature
performing fock build at end of subrot_r(subrot) constructor so that all methods have access
<S^2> of initial wavefunction before polarization iterations 0.0000000000
Beginning iterations for the determination of the polarized wavefunction
Energy prior to optimization (guess energy) = -310.060475995070
Begin Timing: Total SCF Calculation
begin iterations for algorithm: DIIS         
the SCF tolerance is set to 1.00e-08
    1    -310.0604759951      1.14e-04     00000 
    2    -310.0608901397      4.00e-05     00000 
    3    -310.0609247315      2.62e-05     00000 
    4    -310.0609348435      8.42e-06     00000 
    5    -310.0609363602      2.54e-06     00000 
    6    -310.0609366291      1.06e-06     00000 
    7    -310.0609366704      3.00e-07     00000 
    8    -310.0609366744      1.07e-07     00000 
    9    -310.0609366746      5.50e-08     00000 
   10    -310.0609366746      9.71e-09     00000 Convergence criterion met
write pseudocanon occs and virts to disk
write pseudocanon orbital energies to disk
Timing for Total SCF: 213.00s (wall), 1273.54s (cpu)
<S^2> of polarized wavefunction after polarization iterations 0.0000000000
relaxing scfmi constraint to allow all rotations in the entire AO span
Doing General SCFMI
 Exchange:     0.1500 Hartree-Fock + 1.0000 wB97M-V + LR-HF
 Correlation:  1.0000 wB97M-V
 Using Euler-Maclaurin-Lebedev (99,590) quadrature formula
 Nonlocal Correlation:  VV10 with C = 0.0100 and b = 6.00 and scale = 1.00000
 Grid used for NLC:  SG-1 standard quadrature
performing fock build at end of subrot_r(subrot) constructor so that all methods have access
<S^2> of polarized wavefunction before ct-allowed iterations 0.0000000000
Beginning iterations for the determination of the CT-Allowed wavefunction
Energy prior to optimization (guess energy) = -310.060936674642
Begin Timing: Total SCF Calculation
begin iterations for algorithm: DIIS         
the SCF tolerance is set to 1.00e-08
    1    -310.0609366746      6.78e-05     00000 
    2    -310.0614096963      8.18e-06     00000 
    3    -310.0614240403      1.96e-06     00000 
    4    -310.0614243784      1.57e-06     00000 
    5    -310.0614245436      2.12e-07     00000 
    6    -310.0614245472      6.93e-08     00000 
    7    -310.0614245477      1.45e-08     00000 
    8    -310.0614245477      2.59e-09     00000 Convergence criterion met
write pseudocanon occs and virts to disk
write pseudocanon orbital energies to disk
Timing for Total SCF: 165.00s (wall), 989.58s (cpu)
<S^2> of ct_allowed wavefunction after ct-allowed iterations 0.0000000000

================================
        Results of EDA2         
================================
Basic EDA Quantities
--------------------
Fragment Energies (Ha):
1 -155.0293816323
2 -155.0296166044
--------------------
  E_prp (kJ/mol) = 0.0000
  E_frz (kJ/mol) = -3.8799
  E_pol (kJ/mol) = -1.2095
  E_vct (kJ/mol) = -1.2809
  E_int (kJ/mol) = -6.3704
--------------------


Decomposition of frozen interaction energy
--------------------
  --------------------
  Orthogonal Frozen Decomposition:
  --------------------
     E_elec   (ELEC)   (kJ/mol) = -18.9083
     E_pauli  (PAULI)  (kJ/mol) = 23.4173
     E_disp   (DISP)   (kJ/mol) = -8.3889
  --------------------
  Classical Frozen Decomposition:
  --------------------
     E_cls_elec  (CLS ELEC)  (kJ/mol) = -7.7007
     E_mod_pauli (MOD PAULI) (kJ/mol) = 11.2899 (FRZ - CLS ELEC - CLS DISP)
     E_cls_disp  (CLS DISP)  (kJ/mol) = -7.4691
  --------------------
--------------------

Simplified EDA Summary (kJ/mol)
--------------------
 PREPARATION      0.0000
 FROZEN           -3.8799 (ELEC + PAULI + DISP)
[ELEC + PAULI = 3.5892, DISP = -7.4691]
 POLARIZATION    -1.2095
 CHARGE TRANSFER -1.2809
 TOTAL           -6.3704     (PRP + FRZ + POL + CT)
--------------------
 
 --------------------------------------------------------------
 
                    Orbital Energies (a.u.)
 --------------------------------------------------------------
 
 Alpha MOs
 -- Occupied --
-19.3383 -19.3220 -10.3916 -10.3759 -10.3317 -10.3190  -1.1597  -1.1439
 -0.8784  -0.8600  -0.7339  -0.7297  -0.6386  -0.6033  -0.5817  -0.5530
 -0.5361  -0.5187  -0.4886  -0.4733  -0.4709  -0.4626  -0.4402  -0.4179
 -0.3855  -0.3710
 -- Virtual --
  0.0303   0.0463   0.0526   0.0667   0.0706   0.0761   0.0890   0.0919
  0.1128   0.1190   0.1267   0.1275   0.1380   0.1485   0.1569   0.1696
  0.1770   0.1813   0.1819   0.1973   0.2016   0.2084   0.2133   0.2283
  0.2284   0.2333   0.2412   0.2506   0.2576   0.2638   0.2722   0.2768
  0.2818   0.2931   0.2956   0.2976   0.3084   0.3125   0.3151   0.3178
  0.3218   0.3295   0.3331   0.3389   0.3417   0.3446   0.3499   0.3545
  0.3618   0.3694   0.3715   0.3727   0.3795   0.3892   0.3930   0.4027
  0.4051   0.4061   0.4134   0.4144   0.4216   0.4257   0.4379   0.4499
  0.4529   0.4580   0.4616   0.4685   0.4787   0.4800   0.4811   0.4875
  0.4979   0.5049   0.5150   0.5272   0.5293   0.5387   0.5428   0.5468
  0.5578   0.5611   0.5644   0.5802   0.5944   0.6001   0.6138   0.6335
  0.6427   0.6457   0.6536   0.6643   0.6855   0.6913   0.6972   0.7037
  0.7136   0.7180   0.7224   0.7377   0.7470   0.7488   0.7507   0.7595
  0.7611   0.7686   0.7806   0.7842   0.7909   0.8030   0.8069   0.8286
  0.8353   0.8368   0.8526   0.8694   0.8838   0.8926   0.9067   0.9295
  0.9311   0.9511   0.9562   0.9691   0.9799   0.9950   1.0052   1.0284
  1.0456   1.0554   1.0676   1.0934   1.1179   1.1366   1.1481   1.1512
  1.1765   1.1823   1.1956   1.2022   1.2096   1.2273   1.2339   1.2416
  1.2597   1.2693   1.2728   1.2781   1.2903   1.2926   1.3193   1.3289
  1.3525   1.3625   1.3649   1.3733   1.3866   1.3968   1.4129   1.4308
  1.4412   1.4598   1.4719   1.4896   1.4953   1.5049   1.5135   1.5452
  1.5896   1.6038   1.6305   1.6324   1.6398   1.6695   1.6757   1.6802
  1.6969   1.7022   1.7095   1.7280   1.7380   1.7488   1.7722   1.7827
  1.8023   1.8701   1.9178   1.9450   1.9571   1.9710   1.9973   2.0218
  2.0581   2.0923   2.0995   2.1116   2.1659   2.1857   2.2328   2.2539
  2.2723   2.2904   2.3588   2.3625   2.3803   2.3983   2.4265   2.4608
  2.4814   2.5147   2.6825   2.7250   2.7498   2.7731   2.7984   2.8043
  2.8186   2.8395   2.8650   2.8786   2.9045   2.9106   2.9245   2.9283
  2.9377   2.9668   2.9731   2.9772   2.9886   2.9927   3.0104   3.0506
  3.0529   3.0564   3.0886   3.1048   3.1318   3.1411   3.1497   3.1661
  3.1762   3.2058   3.2155   3.2230   3.2321   3.2403   3.2448   3.2501
  3.2704   3.2944   3.2973   3.3047   3.3078   3.3350   3.3495   3.3701
  3.4144   3.4306   3.4538   3.4617   3.4689   3.5123   3.5299   3.5391
  3.5572   3.5778   3.5876   3.5918   3.6095   3.6124   3.6484   3.6619
  3.6796   3.7062   3.7111   3.7485   3.7591   3.7685   3.7717   3.7849
  3.8113   3.8445   3.8592   3.8861   3.9147   3.9507   3.9966   4.0062
  4.0126   4.0259   4.0379   4.0585   4.0603   4.0677   4.0808   4.0989
  4.1158   4.1281   4.1365   4.1527   4.1617   4.1668   4.1825   4.1998
  4.2096   4.2294   4.2496   4.2542   4.2685   4.2722   4.2801   4.3126
  4.3171   4.3519   4.3684   4.3860   4.4095   4.4237   4.4489   4.4553
  4.4585   4.4722   4.5025   4.5228   4.5293   4.5706   4.6036   4.6103
  4.6452   4.6649   4.6844   4.6989   4.7091   4.7542   4.8151   4.8196
  4.8447   4.8603   4.9196   4.9417   4.9466   4.9585   4.9715   5.0004
  5.0178   5.0259   5.0374   5.0725   5.0923   5.1417   5.2112   5.2457
  5.2913   5.3140   5.3167   5.3347   5.4045   5.4074   5.4246   5.4289
  5.4452   5.4510   5.4627   5.4917   5.5123   5.5631   5.5927   5.6051
  5.6239   5.6308   5.6319   5.6779   5.7450   5.7522   5.7817   5.8059
  5.8185   5.8284   5.9058   5.9724   6.1055   6.1225   6.2578   6.3082
  6.6631   6.6723   6.8092   6.8248   6.8757   6.8988   6.9677   6.9874
  7.0455   7.0688   7.3715   7.3943   7.5529   7.5567   7.7781   7.8112
 23.7358  23.7519  24.0921  24.1068  44.7492  44.7967
 --------------------------------------------------------------
 
          Ground-State Mulliken Net Atomic Charges

     Atom                 Charge (a.u.)
  ----------------------------------------
      1 C                    -0.548697
      2 C                    -0.255688
      3 O                    -0.388488
      4 H                     0.124291
      5 H                    -0.012312
      6 H                     0.260028
      7 H                     0.269327
      8 H                     0.257408
      9 H                     0.282000
     10 C                    -0.927097
     11 C                    -0.278826
     12 O                    -0.312708
     13 H                     0.095600
     14 H                     0.316037
     15 H                     0.233825
     16 H                     0.234348
     17 H                     0.324573
     18 H                     0.326379
  ----------------------------------------
  Sum of atomic charges =     0.000000

 -----------------------------------------------------------------
                    Cartesian Multipole Moments
 -----------------------------------------------------------------
    Charge (ESU x 10^10)
                -0.0000
    Dipole Moment (Debye)
         X      -3.1756      Y       0.3920      Z      -1.0900
       Tot       3.3803
    Quadrupole Moments (Debye-Ang)
        XX     -43.3853     XY      -3.1532     YY     -36.7140
        XZ      -4.8109     YZ       1.2230     ZZ     -39.7919
    Octopole Moments (Debye-Ang^2)
       XXX     -62.4425    XXY       3.9807    XYY      -5.7849
       YYY      15.3856    XXZ     -19.4516    XYZ       5.4061
       YYZ      -1.1859    XZZ       6.1757    YZZ       0.3365
       ZZZ      -0.6892
    Hexadecapole Moments (Debye-Ang^3)
      XXXX   -1840.9360   XXXY     -61.1747   XXYY    -281.4642
      XYYY     -41.0938   YYYY    -194.0152   XXXZ     -76.5162
      XXYZ      18.3520   XYYZ      -2.7724   YYYZ      -0.6275
      XXZZ    -279.7924   XYZZ      -6.6473   YYZZ     -48.3892
      XZZZ      -2.9262   YZZZ       2.0915   ZZZZ     -73.0189
 -----------------------------------------------------------------
 Total job time:  1355.70s(wall), 4654.29s(cpu) 
 Sat Mar  1 04:46:37 2025

        *************************************************************
        *                                                           *
        *  Thank you very much for using Q-Chem.  Have a nice day.  *
        *                                                           *
        *************************************************************


