
Running Job 1 of 1 004_ethanol_dimer_33_almo.inp
qchem 004_ethanol_dimer_33_almo.inp_130208.0 /scratch/qchem130208/ 6
/home/kchung25/qchem/5.4.0/exe/qcprog.exe_s 004_ethanol_dimer_33_almo.inp_130208.0 /scratch/qchem130208/
                  Welcome to Q-Chem
     A Quantum Leap Into The Future Of Chemistry


 Q-Chem 5.4, Q-Chem, Inc., Pleasanton, CA (2021)

 E. Epifanovsky,  A. T. B. Gilbert,  Xintian Feng,  Joonho Lee,  Yuezhi Mao,  
 N. Mardirossian,  P. Pokhilko,  A. White,  M. Wormit,  M. P. Coons,  
 A. L. Dempwolff,  Zhengting Gan,  D. Hait,  P. R. Horn,  L. D. Jacobson,  
 I. Kaliman,  J. Kussmann,  A. W. Lange,  Ka Un Lao,  D. S. Levine,  Jie Liu,  
 S. C. McKenzie,  A. F. Morrison,  K. Nanda,  F. Plasser,  D. R. Rehn,  
 M. L. Vidal,  Zhi-Qiang You,  Ying Zhu,  B. Alam,  B. Albrecht,  
 A. Aldossary,  E. Alguire,  J. H. Andersen,  D. Barton,  K. Begam,  A. Behn,  
 Y. A. Bernard,  E. J. Berquist,  H. Burton,  A. Carreras,  K. Carter-Fenk,  
 Romit Chakraborty,  A. D. Chien,  K. D. Closser,  V. Cofer-Shabica,  
 S. Dasgupta,  Jia Deng,  M. de Wergifosse,  M. Diedenhofen,  Hainam Do,  
 S. Ehlert,  Po-Tung Fang,  S. Fatehi,  Qingguo Feng,  T. Friedhoff,  
 J. Gayvert,  Qinghui Ge,  G. Gidofalvi,  M. Goldey,  J. Gomes,  
 C. Gonzalez-Espinoza,  S. Gulania,  A. Gunina,  M. W. D. Hanson-Heine,  
 P. H. P. Harbach,  A. W. Hauser,  M. F. Herbst,  M. Hernandez Vera,  
 M. Hodecker,  Z. C. Holden,  S. Houck,  Xunkun Huang,  Kerwin Hui,  
 B. C. Huynh,  M. Ivanov,  Hyunjun Ji,  Hanjie Jiang,  B. Kaduk,  S. Kaehler,  
 K. Khistyaev,  Jaehoon Kim,  P. Klunzinger,  Z. Koczor-Benda,  
 Joong Hoon Koh,  D. Kosenkov,  L. Koulias,  T. Kowalczyk,  C. M. Krauter,  
 K. Kue,  A. Kunitsa,  T. Kus,  A. Landau,  K. V. Lawler,  D. Lefrancois,  
 S. Lehtola,  Rain Li,  Yi-Pei Li,  Jiashu Liang,  M. Liebenthal,  
 Hung-Hsuan Lin,  You-Sheng Lin,  Fenglai Liu,  Kuan-Yu Liu,  
 M. Loipersberger,  A. Luenser,  A. Manjanath,  P. Manohar,  E. Mansoor,  
 S. F. Manzer,  Shan-Ping Mao,  A. V. Marenich,  T. Markovich,  S. Mason,  
 S. A. Maurer,  P. F. McLaughlin,  M. F. S. J. Menger,  J.-M. Mewes,  
 S. A. Mewes,  P. Morgante,  J. W. Mullinax,  K. J. Oosterbaan,  G. Paran,  
 Alexander C. Paul,  Suranjan K. Paul,  F. Pavosevic,  Zheng Pei,  S. Prager,  
 E. I. Proynov,  E. Ramos,  B. Rana,  A. E. Rask,  A. Rettig,  R. M. Richard,  
 F. Rob,  E. Rossomme,  T. Scheele,  M. Scheurer,  M. Schneider,  
 N. Sergueev,  S. M. Sharada,  W. Skomorowski,  D. W. Small,  C. J. Stein,  
 Yu-Chuan Su,  E. J. Sundstrom,  Zhen Tao,  J. Thirman,  T. Tsuchimochi,  
 N. M. Tubman,  S. P. Veccham,  O. Vydrov,  J. Wenzel,  J. Witte,  A. Yamada,  
 Kun Yao,  S. Yeganeh,  S. R. Yost,  A. Zech,  Igor Ying Zhang,  Xing Zhang,  
 Yu Zhang,  D. Zuev,  A. Aspuru-Guzik,  A. T. Bell,  N. A. Besley,  
 K. B. Bravaya,  B. R. Brooks,  D. Casanova,  Jeng-Da Chai,  S. Coriani,  
 C. J. Cramer,  A. E. DePrince, III,  R. A. DiStasio Jr.,  A. Dreuw,  
 B. D. Dunietz,  T. R. Furlani,  W. A. Goddard III,  S. Grimme,  
 S. Hammes-Schiffer,  T. Head-Gordon,  W. J. Hehre,  Chao-Ping Hsu,  
 T.-C. Jagau,  Yousung Jung,  A. Klamt,  Jing Kong,  D. S. Lambrecht,  
 WanZhen Liang,  N. J. Mayhall,  C. W. McCurdy,  J. B. Neaton,  T. Neudecker,  
 C. Ochsenfeld,  J. A. Parkhill,  R. Peverati,  V. A. Rassolov,  Yihan Shao,  
 L. V. Slipchenko,  R. P. Steele,  J. E. Subotnik,  A. J. W. Thom,  
 A. Tkatchenko,  D. G. Truhlar,  T. Van Voorhis,  T. A. Wesolowski,  
 K. B. Whaley,  H. L. Woodcock III,  P. M. Zimmerman,  S. Faraji,  
 P. M. W. Gill,  M. Head-Gordon,  J. M. Herbert,  A. I. Krylov

 Additional authors since Version 5.4.0: 
 Chandrima Chakravarty,  L. Cunha,  R. Kang,  Yongbin Kim,  S. Kotaru,  
 Shaozhi Li,  Xiangyuan Li,  F. Matz,  A. Molle,  V. Parravicini,  
 Haisheng Ren,  Hengyuan Shen,  Yingli Su,  Hung-Yi Tsai,  C. Utku,  
 Fang Wang,  Jeff Yang,  F. Zeller

 Contributors to earlier versions of Q-Chem not listed above: 
 R. D. Adamson,  B. Austin,  R. Baer,  J. Baker,  G. J. O. Beran,  
 K. Brandhorst,  S. T. Brown,  E. F. C. Byrd,  Arup K. Chakraborty,  
 G. K. L. Chan,  Chun-Min Chang,  Yunqing Chen,  C.-L. Cheng,  
 Siu Hung Chien,  D. M. Chipman,  D. L. Crittenden,  H. Dachsel,  
 R. J. Doerksen,  A. D. Dutoi,  R. G. Edgar,  J. Fosso-Tande,  
 L. Fusti-Molnar,  D. Ghosh,  A. Ghysels,  A. Golubeva-Zadorozhnaya,  
 J. Gonthier,  M. S. Gordon,  S. R. Gwaltney,  G. Hawkins,  J. E. Herr,  
 A. Heyden,  S. Hirata,  E. G. Hohenstein,  G. Kedziora,  F. J. Keil,  
 C. Kelley,  Jihan Kim,  R. A. King,  R. Z. Khaliullin,  P. P. Korambath,  
 W. Kurlancheek,  A. Laurent,  A. M. Lee,  M. S. Lee,  S. V. Levchenko,  
 Ching Yeh Lin,  D. Liotard,  E. Livshits,  R. C. Lochan,  I. Lotan,  
 L. A. Martinez-Martinez,  P. E. Maslen,  N. Nair,  D. P. O'Neill,  
 D. Neuhauser,  E. Neuscamman,  C. M. Oana,  R. Olivares-Amaya,  R. Olson,  
 T. M. Perrine,  B. Peters,  P. A. Pieniazek,  A. Prociuk,  Y. M. Rhee,  
 J. Ritchie,  M. A. Rohrdanz,  E. Rosta,  N. J. Russ,  H. F. Schaefer III,  
 M. W. Schmidt,  N. E. Schultz,  S. Sharma,  N. Shenvi,  C. D. Sherrill,  
 A. C. Simmonett,  A. Sodt,  T. Stein,  D. Stuck,  K. S. Thanthiriwatte,  
 V. Vanovschi,  L. Vogt,  Tao Wang,  A. Warshel,  M. A. Watson,  
 C. F. Williams,  Q. Wu,  X. Xu,  Jun Yang,  W. Zhang,  Yan Zhao

   Please cite Q-Chem as follows:
  "Software for the frontiers of quantum chemistry:
   An overview of developments in the Q-Chem 5 package"
   J. Chem. Phys. 155, 084801 (2021)
   https://doi.org/10.1063/5.0055522 (open access)

 Q-Chem 5.4.2 for Intel X86 EM64T Linux

 Parts of Q-Chem use Armadillo 9.900.5 (Nocturnal Misbehaviour).
 http://arma.sourceforge.net/

 Q-Chem begins on Fri Feb 28 13:26:45 2025  

 Host: 
0

     Scratch files written to /scratch/qchem130208//
 Dec1321 |scratch|qcdevops|jenkins|workspace|build_RNUM 5684   
 Processing $rem in /home/kchung25/qchem/5.4.0/config/preferences:
 Processing $rem in /home/kchung25/.qchemrc:

 Q-Chem warning in module libgen/rem_setup.C, line 3079:

 Neither GIA nor STOLL is specified by user. Use STOLL as the default


 Checking the input file for inconsistencies... 	...done.

--------------------------------------------------------------
User input:
--------------------------------------------------------------
$molecule
0 1
--
0 1
C   -1.593383  -1.115858   0.591644
C   -1.764270  -0.123712  -0.529372
O   -1.862939   1.204783  -0.058805
H   -2.583391   1.248279   0.574950
H   -1.478930  -2.129891   0.203014
H   -2.458898  -1.109118   1.262035
H   -0.702776  -0.873489   1.176003
H   -2.637502  -0.383753  -1.144722
H   -0.887162  -0.148794  -1.180624
--
0 1
C    1.625389   1.264971   0.088206
C    2.097317  -0.135053   0.361724
O    1.513242  -0.993398  -0.597254
H    1.828698  -1.887056  -0.450836
H    2.084511   1.967305   0.786209
H    0.539622   1.343080   0.186799
H    1.897259   1.562903  -0.926434
H    1.811527  -0.437927   1.380738
H    3.194302  -0.184703   0.308121
$end

$rem
JOBTYPE          eda
EDA2             1
METHOD           wB97M-V
BASIS            def2-TZVPPD
SYMMETRY         false
MEM_TOTAL        50000
MEM_STATIC       10000
THRESH           14
SCF_CONVERGENCE  8
XC_GRID          000099000590
NL_GRID          1
EDA_CLS_DISP     true
FD_MAT_VEC_PROD  FALSE
$end
--------------------------------------------------------------
 ----------------------------------------------------------------
             Standard Nuclear Orientation (Angstroms)
    I     Atom           X                Y                Z
 ----------------------------------------------------------------
    1      C      -1.5933830184    -1.1158580428     0.5916442531
    2      C      -1.7642700704    -0.1237120677    -0.5293717610
    3      O      -1.8629390268     1.2047829449    -0.0588047874
    4      H      -2.5833909899     1.2482789691     0.5749502530
    5      H      -1.4789300533    -2.1298910536     0.2030142709
    6      H      -2.4588979798    -1.1091180159     1.2620353026
    7      H      -0.7027759818    -0.8734890398     1.1760031961
    8      H      -2.6375021090    -0.3837530717    -1.1447217046
    9      H      -0.8871621082    -0.1487940943    -1.1806238108
   10      C       1.6253889824     1.2649709050     0.0882060107
   11      C       2.0973169806    -0.1350530943     0.3617240174
   12      O       1.5132419149    -0.9933981102    -0.5972539284
   13      H       1.8286979121    -1.8870561106    -0.4508359250
   14      H       2.0845110312     1.9673049161     0.7862089674
   15      H       0.5396219890     1.3430799209     0.1867990712
   16      H       1.8972589278     1.5629028771    -0.9264340121
   17      H       1.8115270354    -0.4379270662     1.3807380411
   18      H       3.1943019769    -0.1847031093     0.3081209555
 ----------------------------------------------------------------
 Molecular Point Group                 C1    NOp =  1
 Largest Abelian Subgroup              C1    NOp =  1
 Nuclear Repulsion Energy =         258.09786377 hartrees
 There are       26 alpha and       26 beta electrons
 Requested basis set is def2-TZVPPD
 There are 164 shells and 432 basis functions

 Q-Chem warning in module libmdc/get_mega.C, line 171:

 Allowed MEM_STATIC has been capped at MEM_STATIC=8191.
 Reduce the value of MEM_STATIC to silence this warning.


 Total QAlloc Memory Limit  50000 MB
 Mega-Array Size      8007 MB
 MEM_STATIC part      8191 MB
 A cutoff of  1.0D-14 yielded  12628 shell pairs
 There are     87364 function pairs (    107630 Cartesian)
 Smallest overlap matrix eigenvalue = 4.98E-06

 Scale SEOQF with 1.000000e-01/1.000000e-01/1.000000e-01

 Standard Electronic Orientation quadrupole field applied
 Nucleus-field energy     =     0.0000000083 hartrees

 -----------------------------------------------------------------------
  General SCF calculation program by
  Eric Jon Sundstrom, Paul Horn, Yuezhi Mao, Dmitri Zuev, Alec White,
  David Stuck, Shaama M.S., Shane Yost, Joonho Lee, David Small,
  Daniel Levine, Susi Lehtola, Hugh Burton, Evgeny Epifanovsky,
  Bang C. Huynh
 -----------------------------------------------------------------------
================================================================
                 ALMO-EDA with the EDA2 driver                  
================================================================
 The second-generation ALMO-EDA (for DFT):                      
 P. R. Horn, Y. Mao and M. Head-Gordon, PCCP, 18, 23067 (2016)  
 Y. Mao et al. Annu. Rev. Phys. Chem. 72, 641 (2021)            
 Decomposition of the frozen energy:                            
 P. R. Horn, Y. Mao and M. Head-Gordon, JCP, 144, 114107 (2016) 
 FERF model for polarization:                                   
 P. R. Horn and M. Head-Gordon, JCP, 143, 114111 (2015)         
================================================================
 Using eda2 option set 1
 Option set summary: Frozen orbital wavefunction, initial wavefunction decomposition, and nDQ polarization.
--------------------------------
Printing EDA Options
--------------------------------
eda_child_super_basis      0
fragmo_guess_mode          0
child_mp                   1
child_mp_orders            232
cls_elec                   1
cls_disp                   1
scfmi_mode                 1
scfmi_occs                 0
scfmi_virts                0
frz_relax                  0
frz_relax_method           0
dc_pen_start               0
dc_pen_conv                0
dc_pen_increment           0
dc_pen_steps               0
dc_pen_thresh_factor       0
dc_pen_pre_newton_thresh   0
frz_ortho_decomp           1
frz_ortho_decomp_conv      6
plot_mo_ortho_frz          0
frgm_method                2
scfmi_freeze_ss            0
separate_rehyb             0
plot_diff_den              0
eda_nocv                   0
eda_vct_relax              1
disp_free_x                0
disp_free_c                0
eda_bsse                   0
eda_pct_a                  0
eda_covp                   0
--------------------------------
Attempting to make child job directory: /scratch/qchem130208//Frg1/
Attempting to make child job directory: /scratch/qchem130208//Frg2/
Creating input file /scratch/qchem130208/Frg1.input
using default PutDataFrgm: nothing
calling putenv with: QCSCRATCH=/scratch/qchem130208/ 
Spawning Job For Fragment 0
Done Job For Fragment 0
calling putenv with: QCSCRATCH=/scratch 
calling putenv with: QCTHREADS=6 
Creating input file /scratch/qchem130208/Frg2.input
using default PutDataFrgm: nothing
calling putenv with: QCSCRATCH=/scratch/qchem130208/ 
Spawning Job For Fragment 1
Done Job For Fragment 1
calling putenv with: QCSCRATCH=/scratch 
calling putenv with: QCTHREADS=6 
Doing General SCFMI
 Exchange:     0.1500 Hartree-Fock + 1.0000 wB97M-V + LR-HF
 Correlation:  1.0000 wB97M-V
 Using Euler-Maclaurin-Lebedev (99,590) quadrature formula
 Nonlocal Correlation:  VV10 with C = 0.0100 and b = 6.00 and scale = 1.00000
 Grid used for NLC:  SG-1 standard quadrature
performing fock build before subrot guess so that all methods have access
Printing subrot_rss_gen Method Specification:
Occupied Subspace Method is 0
Virtual Subspace Method is 0
Energy of the unrelaxed supersystem initial determinant -310.061049849208
write pseudocanon occs and virts to disk
write pseudocanon orbital energies to disk
Tolerance of ortho_decomp_scf: 1.00e-06
GDM subspace size: 20
Beginning the Orthogonal Decomposition of the Initial Supersystem Wavefunction
    1    -310.0288045412      7.42e-02     ortho_decomp Preconditoned Steepest Descent
    2    -310.0344453130      2.21e-03     ortho_decomp BFGS Step
    3    -310.0344717182      1.64e-04     ortho_decomp BFGS Step
    4    -310.0344717442      5.82e-06     ortho_decomp BFGS Step
    5    -310.0344717443      2.17e-07     ortho_decomp 00000 Convergence criterion met
 Hartree-Fock
 Hartree-Fock
 Hartree-Fock
 Exchange:     0.1500 Hartree-Fock + 1.0000 wB97M-V + LR-HF
 Correlation:  1.0000 wB97M-V
 Using Euler-Maclaurin-Lebedev (99,590) quadrature formula
 Nonlocal Correlation:  VV10 with C = 0.0100 and b = 6.00 and scale = 1.00000
 Grid used for NLC:  SG-1 standard quadrature
 Long-range K will be added via erf
 Coulomb attenuation parameter = 0.3 bohr**(-1)
 Nonlocal correlation = 2.036152639362e-01
Doing General SCFMI
 Exchange:     0.1500 Hartree-Fock + 1.0000 wB97M-V + LR-HF
 Correlation:  1.0000 wB97M-V
 Using Euler-Maclaurin-Lebedev (99,590) quadrature formula
 Nonlocal Correlation:  VV10 with C = 0.0100 and b = 6.00 and scale = 1.00000
 Grid used for NLC:  SG-1 standard quadrature
performing fock build at end of subrot_r(subrot) constructor so that all methods have access
<S^2> of initial wavefunction before polarization iterations 0.0000000000
Beginning iterations for the determination of the polarized wavefunction
Energy prior to optimization (guess energy) = -310.061049849209
Begin Timing: Total SCF Calculation
begin iterations for algorithm: DIIS         
the SCF tolerance is set to 1.00e-08
    1    -310.0610498492      1.67e-04     00000 
    2    -310.0618853561      6.48e-05     00000 
    3    -310.0619572769      4.11e-05     00000 
    4    -310.0619815405      1.10e-05     00000 
    5    -310.0619840884      4.15e-06     00000 
    6    -310.0619846795      1.59e-06     00000 
    7    -310.0619848042      5.84e-07     00000 
    8    -310.0619848227      2.35e-07     00000 
    9    -310.0619848244      1.30e-07     00000 
   10    -310.0619848247      4.86e-08     00000 
   11    -310.0619848247      2.14e-08     00000 
   12    -310.0619848247      1.05e-08     00000 
   13    -310.0619848247      3.19e-09     00000 Convergence criterion met
write pseudocanon occs and virts to disk
write pseudocanon orbital energies to disk
Timing for Total SCF: 324.00s (wall), 1943.17s (cpu)
<S^2> of polarized wavefunction after polarization iterations 0.0000000000
relaxing scfmi constraint to allow all rotations in the entire AO span
Doing General SCFMI
 Exchange:     0.1500 Hartree-Fock + 1.0000 wB97M-V + LR-HF
 Correlation:  1.0000 wB97M-V
 Using Euler-Maclaurin-Lebedev (99,590) quadrature formula
 Nonlocal Correlation:  VV10 with C = 0.0100 and b = 6.00 and scale = 1.00000
 Grid used for NLC:  SG-1 standard quadrature
performing fock build at end of subrot_r(subrot) constructor so that all methods have access
<S^2> of polarized wavefunction before ct-allowed iterations 0.0000000000
Beginning iterations for the determination of the CT-Allowed wavefunction
Energy prior to optimization (guess energy) = -310.061984824700
Begin Timing: Total SCF Calculation
begin iterations for algorithm: DIIS         
the SCF tolerance is set to 1.00e-08
    1    -310.0619848247      1.01e-04     00000 
    2    -310.0630959228      1.26e-05     00000 
    3    -310.0631308137      3.23e-06     00000 
    4    -310.0631316673      2.67e-06     00000 
    5    -310.0631321384      2.85e-07     00000 
    6    -310.0631321480      1.01e-07     00000 
    7    -310.0631321495      2.89e-08     00000 
    8    -310.0631321496      6.68e-09     00000 Convergence criterion met
write pseudocanon occs and virts to disk
write pseudocanon orbital energies to disk
Timing for Total SCF: 191.00s (wall), 1148.02s (cpu)
<S^2> of ct_allowed wavefunction after ct-allowed iterations 0.0000000000

================================
        Results of EDA2         
================================
Basic EDA Quantities
--------------------
Fragment Energies (Ha):
1 -155.0294135172
2 -155.0296000667
--------------------
  E_prp (kJ/mol) = 0.0000
  E_frz (kJ/mol) = -5.3463
  E_pol (kJ/mol) = -2.4548
  E_vct (kJ/mol) = -3.0123
  E_int (kJ/mol) = -10.8134
--------------------


Decomposition of frozen interaction energy
--------------------
  --------------------
  Orthogonal Frozen Decomposition:
  --------------------
     E_elec   (ELEC)   (kJ/mol) = -36.8330
     E_pauli  (PAULI)  (kJ/mol) = 49.5860
     E_disp   (DISP)   (kJ/mol) = -18.0993
  --------------------
  Classical Frozen Decomposition:
  --------------------
     E_cls_elec  (CLS ELEC)  (kJ/mol) = -15.0760
     E_mod_pauli (MOD PAULI) (kJ/mol) = 25.4419 (FRZ - CLS ELEC - CLS DISP)
     E_cls_disp  (CLS DISP)  (kJ/mol) = -15.7122
  --------------------
--------------------

Simplified EDA Summary (kJ/mol)
--------------------
 PREPARATION      0.0000
 FROZEN           -5.3463 (ELEC + PAULI + DISP)
[ELEC + PAULI = 10.3660, DISP = -15.7122]
 POLARIZATION    -2.4548
 CHARGE TRANSFER -3.0123
 TOTAL           -10.8134     (PRP + FRZ + POL + CT)
--------------------
 
 --------------------------------------------------------------
 
                    Orbital Energies (a.u.)
 --------------------------------------------------------------
 
 Alpha MOs
 -- Occupied --
-19.3318 -19.3263 -10.3843 -10.3757 -10.3266 -10.3179  -1.1527  -1.1472
 -0.8682  -0.8643  -0.7349  -0.7217  -0.6309  -0.6091  -0.5746  -0.5544
 -0.5392  -0.5097  -0.4806  -0.4767  -0.4686  -0.4548  -0.4339  -0.4201
 -0.3784  -0.3750
 -- Virtual --
  0.0325   0.0448   0.0601   0.0606   0.0776   0.0808   0.0882   0.1017
  0.1102   0.1234   0.1262   0.1391   0.1417   0.1621   0.1669   0.1706
  0.1760   0.1869   0.1924   0.2003   0.2062   0.2157   0.2201   0.2402
  0.2449   0.2499   0.2558   0.2586   0.2715   0.2737   0.2834   0.2895
  0.2983   0.3016   0.3050   0.3074   0.3130   0.3184   0.3230   0.3251
  0.3316   0.3336   0.3380   0.3454   0.3480   0.3521   0.3591   0.3605
  0.3657   0.3700   0.3742   0.3766   0.3920   0.3973   0.4026   0.4114
  0.4143   0.4257   0.4303   0.4352   0.4481   0.4515   0.4569   0.4598
  0.4601   0.4671   0.4818   0.4825   0.4860   0.4964   0.5008   0.5145
  0.5168   0.5210   0.5395   0.5465   0.5481   0.5524   0.5579   0.5692
  0.5763   0.5817   0.5966   0.6143   0.6251   0.6297   0.6374   0.6441
  0.6519   0.6617   0.6732   0.6752   0.6865   0.6927   0.7067   0.7200
  0.7303   0.7339   0.7421   0.7522   0.7610   0.7618   0.7678   0.7707
  0.7753   0.7773   0.7948   0.8021   0.8090   0.8222   0.8264   0.8365
  0.8469   0.8563   0.8738   0.8857   0.8956   0.9288   0.9392   0.9526
  0.9567   0.9668   0.9801   0.9861   1.0016   1.0263   1.0392   1.0434
  1.0605   1.0847   1.0885   1.1163   1.1224   1.1442   1.1587   1.1701
  1.1849   1.1958   1.2272   1.2306   1.2391   1.2566   1.2695   1.2732
  1.2869   1.2972   1.3021   1.3169   1.3342   1.3482   1.3552   1.3724
  1.3794   1.3888   1.3944   1.4167   1.4227   1.4360   1.4466   1.4537
  1.4664   1.4846   1.5014   1.5089   1.5294   1.5326   1.5573   1.5759
  1.6085   1.6191   1.6388   1.6630   1.6765   1.6831   1.6871   1.6982
  1.7136   1.7217   1.7404   1.7707   1.7751   1.7995   1.8158   1.8229
  1.8316   1.8449   1.9382   1.9865   1.9949   2.0188   2.0297   2.0635
  2.0848   2.0909   2.1372   2.1466   2.1785   2.2231   2.2340   2.2781
  2.2811   2.3141   2.3671   2.3847   2.4046   2.4281   2.4432   2.4903
  2.5110   2.5516   2.7001   2.7132   2.7393   2.7694   2.7918   2.8248
  2.8550   2.8623   2.8863   2.9066   2.9134   2.9275   2.9393   2.9486
  2.9691   2.9767   2.9934   2.9976   3.0114   3.0248   3.0581   3.0619
  3.0807   3.0919   3.1130   3.1268   3.1343   3.1525   3.1742   3.1902
  3.2007   3.2312   3.2451   3.2498   3.2601   3.2844   3.2881   3.3005
  3.3019   3.3104   3.3209   3.3371   3.3430   3.3659   3.3696   3.4092
  3.4514   3.4643   3.4860   3.4972   3.5179   3.5331   3.5480   3.5557
  3.5810   3.6050   3.6122   3.6304   3.6375   3.6502   3.6637   3.7011
  3.7167   3.7291   3.7387   3.7543   3.7714   3.7895   3.7929   3.8166
  3.8346   3.8432   3.8825   3.9251   3.9356   3.9475   4.0045   4.0108
  4.0209   4.0418   4.0490   4.0601   4.0667   4.0915   4.1127   4.1208
  4.1373   4.1468   4.1553   4.1618   4.1858   4.1996   4.2072   4.2450
  4.2544   4.2646   4.2709   4.2837   4.2969   4.3179   4.3325   4.3391
  4.3539   4.3706   4.3929   4.4047   4.4253   4.4551   4.4726   4.4805
  4.4950   4.5060   4.5254   4.5454   4.5520   4.5805   4.6074   4.6425
  4.6687   4.6890   4.7112   4.7159   4.7396   4.7595   4.8187   4.8275
  4.8551   4.8726   4.9461   4.9557   4.9695   4.9750   4.9882   5.0114
  5.0292   5.0376   5.0592   5.0748   5.1334   5.1764   5.2401   5.2799
  5.3038   5.3156   5.3275   5.3623   5.4223   5.4363   5.4411   5.4497
  5.4560   5.4677   5.4747   5.4994   5.5236   5.5268   5.6056   5.6160
  5.6321   5.6593   5.6892   5.7210   5.7475   5.7605   5.7824   5.8284
  5.8406   5.8539   5.9105   5.9703   6.1142   6.1224   6.2611   6.2985
  6.6853   6.6897   6.8417   6.8520   6.8827   6.8978   6.9668   7.0045
  7.0851   7.1079   7.3771   7.3892   7.5630   7.5769   7.7917   7.8066
 23.7612  23.8052  24.0873  24.1067  44.7724  44.8153
 --------------------------------------------------------------
 
          Ground-State Mulliken Net Atomic Charges

     Atom                 Charge (a.u.)
  ----------------------------------------
      1 C                    -0.827985
      2 C                    -0.229250
      3 O                    -0.391400
      4 H                     0.124444
      5 H                     0.229869
      6 H                     0.366070
      7 H                     0.187244
      8 H                     0.336935
      9 H                     0.187319
     10 C                    -0.748400
     11 C                    -0.345794
     12 O                    -0.358263
     13 H                     0.118439
     14 H                     0.338037
     15 H                     0.082696
     16 H                     0.254387
     17 H                     0.295600
     18 H                     0.380052
  ----------------------------------------
  Sum of atomic charges =     0.000000

 -----------------------------------------------------------------
                    Cartesian Multipole Moments
 -----------------------------------------------------------------
    Charge (ESU x 10^10)
                 0.0000
    Dipole Moment (Debye)
         X       0.1442      Y      -1.7102      Z       1.4760
       Tot       2.2636
    Quadrupole Moments (Debye-Ang)
        XX     -33.8755     XY      -0.9759     YY     -39.5319
        XZ      -0.6156     YZ       1.2177     ZZ     -41.3967
    Octopole Moments (Debye-Ang^2)
       XXX      -9.5178    XXY      -2.2855    XYY       9.1965
       YYY     -12.9868    XXZ       7.5179    XYZ      -4.3772
       YYZ      -0.1419    XZZ      -3.3363    YZZ       1.9615
       ZZZ      -1.6108
    Hexadecapole Moments (Debye-Ang^3)
      XXXX    -777.9264   XXXY     -43.4207   XXYY    -177.0654
      XYYY     -33.0023   YYYY    -288.1923   XXXZ     -20.8937
      XXYZ      13.3080   XYYZ      -8.2725   YYYZ      14.1660
      XXZZ    -160.1179   XYZZ      -5.0476   YYZZ     -71.6307
      XZZZ      -2.6287   YZZZ       2.5624   ZZZZ    -128.5691
 -----------------------------------------------------------------
 Total job time:  1563.56s(wall), 5861.39s(cpu) 
 Fri Feb 28 13:52:49 2025

        *************************************************************
        *                                                           *
        *  Thank you very much for using Q-Chem.  Have a nice day.  *
        *                                                           *
        *************************************************************


