
Running Job 1 of 1 004_ethanol_dimer_40_almo.inp
qchem 004_ethanol_dimer_40_almo.inp_138288.0 /scratch/qchem138288/ 6
/home/kchung25/qchem/5.4.0/exe/qcprog.exe_s 004_ethanol_dimer_40_almo.inp_138288.0 /scratch/qchem138288/
                  Welcome to Q-Chem
     A Quantum Leap Into The Future Of Chemistry


 Q-Chem 5.4, Q-Chem, Inc., Pleasanton, CA (2021)

 E. Epifanovsky,  A. T. B. Gilbert,  Xintian Feng,  Joonho Lee,  Yuezhi Mao,  
 N. Mardirossian,  P. Pokhilko,  A. White,  M. Wormit,  M. P. Coons,  
 A. L. Dempwolff,  Zhengting Gan,  D. Hait,  P. R. Horn,  L. D. Jacobson,  
 I. Kaliman,  J. Kussmann,  A. W. Lange,  Ka Un Lao,  D. S. Levine,  Jie Liu,  
 S. C. McKenzie,  A. F. Morrison,  K. Nanda,  F. Plasser,  D. R. Rehn,  
 M. L. Vidal,  Zhi-Qiang You,  Ying Zhu,  B. Alam,  B. Albrecht,  
 A. Aldossary,  E. Alguire,  J. H. Andersen,  D. Barton,  K. Begam,  A. Behn,  
 Y. A. Bernard,  E. J. Berquist,  H. Burton,  A. Carreras,  K. Carter-Fenk,  
 Romit Chakraborty,  A. D. Chien,  K. D. Closser,  V. Cofer-Shabica,  
 S. Dasgupta,  Jia Deng,  M. de Wergifosse,  M. Diedenhofen,  Hainam Do,  
 S. Ehlert,  Po-Tung Fang,  S. Fatehi,  Qingguo Feng,  T. Friedhoff,  
 J. Gayvert,  Qinghui Ge,  G. Gidofalvi,  M. Goldey,  J. Gomes,  
 C. Gonzalez-Espinoza,  S. Gulania,  A. Gunina,  M. W. D. Hanson-Heine,  
 P. H. P. Harbach,  A. W. Hauser,  M. F. Herbst,  M. Hernandez Vera,  
 M. Hodecker,  Z. C. Holden,  S. Houck,  Xunkun Huang,  Kerwin Hui,  
 B. C. Huynh,  M. Ivanov,  Hyunjun Ji,  Hanjie Jiang,  B. Kaduk,  S. Kaehler,  
 K. Khistyaev,  Jaehoon Kim,  P. Klunzinger,  Z. Koczor-Benda,  
 Joong Hoon Koh,  D. Kosenkov,  L. Koulias,  T. Kowalczyk,  C. M. Krauter,  
 K. Kue,  A. Kunitsa,  T. Kus,  A. Landau,  K. V. Lawler,  D. Lefrancois,  
 S. Lehtola,  Rain Li,  Yi-Pei Li,  Jiashu Liang,  M. Liebenthal,  
 Hung-Hsuan Lin,  You-Sheng Lin,  Fenglai Liu,  Kuan-Yu Liu,  
 M. Loipersberger,  A. Luenser,  A. Manjanath,  P. Manohar,  E. Mansoor,  
 S. F. Manzer,  Shan-Ping Mao,  A. V. Marenich,  T. Markovich,  S. Mason,  
 S. A. Maurer,  P. F. McLaughlin,  M. F. S. J. Menger,  J.-M. Mewes,  
 S. A. Mewes,  P. Morgante,  J. W. Mullinax,  K. J. Oosterbaan,  G. Paran,  
 Alexander C. Paul,  Suranjan K. Paul,  F. Pavosevic,  Zheng Pei,  S. Prager,  
 E. I. Proynov,  E. Ramos,  B. Rana,  A. E. Rask,  A. Rettig,  R. M. Richard,  
 F. Rob,  E. Rossomme,  T. Scheele,  M. Scheurer,  M. Schneider,  
 N. Sergueev,  S. M. Sharada,  W. Skomorowski,  D. W. Small,  C. J. Stein,  
 Yu-Chuan Su,  E. J. Sundstrom,  Zhen Tao,  J. Thirman,  T. Tsuchimochi,  
 N. M. Tubman,  S. P. Veccham,  O. Vydrov,  J. Wenzel,  J. Witte,  A. Yamada,  
 Kun Yao,  S. Yeganeh,  S. R. Yost,  A. Zech,  Igor Ying Zhang,  Xing Zhang,  
 Yu Zhang,  D. Zuev,  A. Aspuru-Guzik,  A. T. Bell,  N. A. Besley,  
 K. B. Bravaya,  B. R. Brooks,  D. Casanova,  Jeng-Da Chai,  S. Coriani,  
 C. J. Cramer,  A. E. DePrince, III,  R. A. DiStasio Jr.,  A. Dreuw,  
 B. D. Dunietz,  T. R. Furlani,  W. A. Goddard III,  S. Grimme,  
 S. Hammes-Schiffer,  T. Head-Gordon,  W. J. Hehre,  Chao-Ping Hsu,  
 T.-C. Jagau,  Yousung Jung,  A. Klamt,  Jing Kong,  D. S. Lambrecht,  
 WanZhen Liang,  N. J. Mayhall,  C. W. McCurdy,  J. B. Neaton,  T. Neudecker,  
 C. Ochsenfeld,  J. A. Parkhill,  R. Peverati,  V. A. Rassolov,  Yihan Shao,  
 L. V. Slipchenko,  R. P. Steele,  J. E. Subotnik,  A. J. W. Thom,  
 A. Tkatchenko,  D. G. Truhlar,  T. Van Voorhis,  T. A. Wesolowski,  
 K. B. Whaley,  H. L. Woodcock III,  P. M. Zimmerman,  S. Faraji,  
 P. M. W. Gill,  M. Head-Gordon,  J. M. Herbert,  A. I. Krylov

 Additional authors since Version 5.4.0: 
 Chandrima Chakravarty,  L. Cunha,  R. Kang,  Yongbin Kim,  S. Kotaru,  
 Shaozhi Li,  Xiangyuan Li,  F. Matz,  A. Molle,  V. Parravicini,  
 Haisheng Ren,  Hengyuan Shen,  Yingli Su,  Hung-Yi Tsai,  C. Utku,  
 Fang Wang,  Jeff Yang,  F. Zeller

 Contributors to earlier versions of Q-Chem not listed above: 
 R. D. Adamson,  B. Austin,  R. Baer,  J. Baker,  G. J. O. Beran,  
 K. Brandhorst,  S. T. Brown,  E. F. C. Byrd,  Arup K. Chakraborty,  
 G. K. L. Chan,  Chun-Min Chang,  Yunqing Chen,  C.-L. Cheng,  
 Siu Hung Chien,  D. M. Chipman,  D. L. Crittenden,  H. Dachsel,  
 R. J. Doerksen,  A. D. Dutoi,  R. G. Edgar,  J. Fosso-Tande,  
 L. Fusti-Molnar,  D. Ghosh,  A. Ghysels,  A. Golubeva-Zadorozhnaya,  
 J. Gonthier,  M. S. Gordon,  S. R. Gwaltney,  G. Hawkins,  J. E. Herr,  
 A. Heyden,  S. Hirata,  E. G. Hohenstein,  G. Kedziora,  F. J. Keil,  
 C. Kelley,  Jihan Kim,  R. A. King,  R. Z. Khaliullin,  P. P. Korambath,  
 W. Kurlancheek,  A. Laurent,  A. M. Lee,  M. S. Lee,  S. V. Levchenko,  
 Ching Yeh Lin,  D. Liotard,  E. Livshits,  R. C. Lochan,  I. Lotan,  
 L. A. Martinez-Martinez,  P. E. Maslen,  N. Nair,  D. P. O'Neill,  
 D. Neuhauser,  E. Neuscamman,  C. M. Oana,  R. Olivares-Amaya,  R. Olson,  
 T. M. Perrine,  B. Peters,  P. A. Pieniazek,  A. Prociuk,  Y. M. Rhee,  
 J. Ritchie,  M. A. Rohrdanz,  E. Rosta,  N. J. Russ,  H. F. Schaefer III,  
 M. W. Schmidt,  N. E. Schultz,  S. Sharma,  N. Shenvi,  C. D. Sherrill,  
 A. C. Simmonett,  A. Sodt,  T. Stein,  D. Stuck,  K. S. Thanthiriwatte,  
 V. Vanovschi,  L. Vogt,  Tao Wang,  A. Warshel,  M. A. Watson,  
 C. F. Williams,  Q. Wu,  X. Xu,  Jun Yang,  W. Zhang,  Yan Zhao

   Please cite Q-Chem as follows:
  "Software for the frontiers of quantum chemistry:
   An overview of developments in the Q-Chem 5 package"
   J. Chem. Phys. 155, 084801 (2021)
   https://doi.org/10.1063/5.0055522 (open access)

 Q-Chem 5.4.2 for Intel X86 EM64T Linux

 Parts of Q-Chem use Armadillo 9.900.5 (Nocturnal Misbehaviour).
 http://arma.sourceforge.net/

 Q-Chem begins on Fri Feb 28 16:24:14 2025  

 Host: 
0

     Scratch files written to /scratch/qchem138288//
 Dec1321 |scratch|qcdevops|jenkins|workspace|build_RNUM 5684   
 Processing $rem in /home/kchung25/qchem/5.4.0/config/preferences:
 Processing $rem in /home/kchung25/.qchemrc:

 Q-Chem warning in module libgen/rem_setup.C, line 3079:

 Neither GIA nor STOLL is specified by user. Use STOLL as the default


 Checking the input file for inconsistencies... 	...done.

--------------------------------------------------------------
User input:
--------------------------------------------------------------
$molecule
0 1
--
0 1
C   -2.098342   0.899143   0.652061
C   -1.958638  -0.010209  -0.535834
O   -1.739915  -1.319827  -0.056070
H   -1.654998  -1.916632  -0.802169
H   -2.263640   1.930311   0.335211
H   -1.194630   0.867047   1.265258
H   -2.938590   0.588537   1.275365
H   -1.119657   0.320567  -1.166779
H   -2.865503   0.033841  -1.155338
--
0 1
C    1.597211   1.183119  -0.539916
C    1.583708   0.016477   0.407794
O    2.681822  -0.811858   0.090228
H    2.659345  -1.585314   0.656432
H    0.768742   1.863482  -0.330371
H    1.510069   0.837539  -1.572433
H    2.531866   1.739975  -0.450588
H    0.636022  -0.535344   0.322448
H    1.652082   0.378288   1.445082
$end

$rem
JOBTYPE          eda
EDA2             1
METHOD           wB97M-V
BASIS            def2-TZVPPD
SYMMETRY         false
MEM_TOTAL        50000
MEM_STATIC       10000
THRESH           14
SCF_CONVERGENCE  8
XC_GRID          000099000590
NL_GRID          1
EDA_CLS_DISP     true
FD_MAT_VEC_PROD  FALSE
$end
--------------------------------------------------------------
 ----------------------------------------------------------------
             Standard Nuclear Orientation (Angstroms)
    I     Atom           X                Y                Z
 ----------------------------------------------------------------
    1      C      -2.0983418420     0.8991433265     0.6520607834
    2      C      -1.9586379687    -0.0102087029    -0.5358342090
    3      O      -1.7399151271    -1.3198267254    -0.0560701983
    4      H      -1.6549982099    -1.9166317435    -0.8021691932
    5      H      -2.2636397166     1.9303113440     0.3352107749
    6      H      -1.1946298392     0.8670472197     1.2652577737
    7      H      -2.9385898739     0.5885374378     1.2753647958
    8      H      -1.1196569344     0.3205671859    -1.1667792216
    9      H      -2.8655029701     0.0338414042    -1.1553381994
   10      C       1.5972111804     1.1831188527    -0.5399162603
   11      C       1.5837080450     0.0164768639     0.4077937516
   12      O       2.6818219380    -0.8118582766     0.0902277477
   13      H       2.6593448476    -1.5853142681     0.6564317558
   14      H       0.7687422677     1.8634819583    -0.3303712580
   15      H       1.5100691257     0.8375388532    -1.5724332559
   16      H       2.5318662509     1.7399747367    -0.4505882762
   17      H       0.6360219751    -0.5353440186     0.3224477676
   18      H       1.6520821017     0.3782878657     1.4450817472
 ----------------------------------------------------------------
 Molecular Point Group                 C1    NOp =  1
 Largest Abelian Subgroup              C1    NOp =  1
 Nuclear Repulsion Energy =         251.77528253 hartrees
 There are       26 alpha and       26 beta electrons
 Requested basis set is def2-TZVPPD
 There are 164 shells and 432 basis functions

 Q-Chem warning in module libmdc/get_mega.C, line 171:

 Allowed MEM_STATIC has been capped at MEM_STATIC=8191.
 Reduce the value of MEM_STATIC to silence this warning.


 Total QAlloc Memory Limit  50000 MB
 Mega-Array Size      8007 MB
 MEM_STATIC part      8191 MB
 A cutoff of  1.0D-14 yielded  12474 shell pairs
 There are     85974 function pairs (    105702 Cartesian)
 Smallest overlap matrix eigenvalue = 4.40E-06

 Scale SEOQF with 1.000000e-01/1.000000e-01/1.000000e-01

 Standard Electronic Orientation quadrupole field applied
 Nucleus-field energy     =     0.0000000090 hartrees

 -----------------------------------------------------------------------
  General SCF calculation program by
  Eric Jon Sundstrom, Paul Horn, Yuezhi Mao, Dmitri Zuev, Alec White,
  David Stuck, Shaama M.S., Shane Yost, Joonho Lee, David Small,
  Daniel Levine, Susi Lehtola, Hugh Burton, Evgeny Epifanovsky,
  Bang C. Huynh
 -----------------------------------------------------------------------
================================================================
                 ALMO-EDA with the EDA2 driver                  
================================================================
 The second-generation ALMO-EDA (for DFT):                      
 P. R. Horn, Y. Mao and M. Head-Gordon, PCCP, 18, 23067 (2016)  
 Y. Mao et al. Annu. Rev. Phys. Chem. 72, 641 (2021)            
 Decomposition of the frozen energy:                            
 P. R. Horn, Y. Mao and M. Head-Gordon, JCP, 144, 114107 (2016) 
 FERF model for polarization:                                   
 P. R. Horn and M. Head-Gordon, JCP, 143, 114111 (2015)         
================================================================
 Using eda2 option set 1
 Option set summary: Frozen orbital wavefunction, initial wavefunction decomposition, and nDQ polarization.
--------------------------------
Printing EDA Options
--------------------------------
eda_child_super_basis      0
fragmo_guess_mode          0
child_mp                   1
child_mp_orders            232
cls_elec                   1
cls_disp                   1
scfmi_mode                 1
scfmi_occs                 0
scfmi_virts                0
frz_relax                  0
frz_relax_method           0
dc_pen_start               0
dc_pen_conv                0
dc_pen_increment           0
dc_pen_steps               0
dc_pen_thresh_factor       0
dc_pen_pre_newton_thresh   0
frz_ortho_decomp           1
frz_ortho_decomp_conv      6
plot_mo_ortho_frz          0
frgm_method                2
scfmi_freeze_ss            0
separate_rehyb             0
plot_diff_den              0
eda_nocv                   0
eda_vct_relax              1
disp_free_x                0
disp_free_c                0
eda_bsse                   0
eda_pct_a                  0
eda_covp                   0
--------------------------------
Attempting to make child job directory: /scratch/qchem138288//Frg1/
Attempting to make child job directory: /scratch/qchem138288//Frg2/
Creating input file /scratch/qchem138288/Frg1.input
using default PutDataFrgm: nothing
calling putenv with: QCSCRATCH=/scratch/qchem138288/ 
Spawning Job For Fragment 0
Done Job For Fragment 0
calling putenv with: QCSCRATCH=/scratch 
calling putenv with: QCTHREADS=6 
Creating input file /scratch/qchem138288/Frg2.input
using default PutDataFrgm: nothing
calling putenv with: QCSCRATCH=/scratch/qchem138288/ 
Spawning Job For Fragment 1
Done Job For Fragment 1
calling putenv with: QCSCRATCH=/scratch 
calling putenv with: QCTHREADS=6 
Doing General SCFMI
 Exchange:     0.1500 Hartree-Fock + 1.0000 wB97M-V + LR-HF
 Correlation:  1.0000 wB97M-V
 Using Euler-Maclaurin-Lebedev (99,590) quadrature formula
 Nonlocal Correlation:  VV10 with C = 0.0100 and b = 6.00 and scale = 1.00000
 Grid used for NLC:  SG-1 standard quadrature
performing fock build before subrot guess so that all methods have access
Printing subrot_rss_gen Method Specification:
Occupied Subspace Method is 0
Virtual Subspace Method is 0
Energy of the unrelaxed supersystem initial determinant -310.061053497860
write pseudocanon occs and virts to disk
write pseudocanon orbital energies to disk
Tolerance of ortho_decomp_scf: 1.00e-06
GDM subspace size: 20
Beginning the Orthogonal Decomposition of the Initial Supersystem Wavefunction
    1    -310.0383565533      4.91e-02     ortho_decomp Preconditoned Steepest Descent
    2    -310.0412745488      1.48e-03     ortho_decomp BFGS Step
    3    -310.0412866448      9.88e-05     ortho_decomp BFGS Step
    4    -310.0412866603      4.31e-06     ortho_decomp BFGS Step
    5    -310.0412866604      2.00e-07     ortho_decomp 00000 Convergence criterion met
 Hartree-Fock
 Hartree-Fock
 Hartree-Fock
 Exchange:     0.1500 Hartree-Fock + 1.0000 wB97M-V + LR-HF
 Correlation:  1.0000 wB97M-V
 Using Euler-Maclaurin-Lebedev (99,590) quadrature formula
 Nonlocal Correlation:  VV10 with C = 0.0100 and b = 6.00 and scale = 1.00000
 Grid used for NLC:  SG-1 standard quadrature
 Long-range K will be added via erf
 Coulomb attenuation parameter = 0.3 bohr**(-1)
 Nonlocal correlation = 2.041335743402e-01
Doing General SCFMI
 Exchange:     0.1500 Hartree-Fock + 1.0000 wB97M-V + LR-HF
 Correlation:  1.0000 wB97M-V
 Using Euler-Maclaurin-Lebedev (99,590) quadrature formula
 Nonlocal Correlation:  VV10 with C = 0.0100 and b = 6.00 and scale = 1.00000
 Grid used for NLC:  SG-1 standard quadrature
performing fock build at end of subrot_r(subrot) constructor so that all methods have access
<S^2> of initial wavefunction before polarization iterations 0.0000000000
Beginning iterations for the determination of the polarized wavefunction
Energy prior to optimization (guess energy) = -310.061053497860
Begin Timing: Total SCF Calculation
begin iterations for algorithm: DIIS         
the SCF tolerance is set to 1.00e-08
    1    -310.0610534979      1.26e-04     00000 
    2    -310.0615305845      4.21e-05     00000 
    3    -310.0615683849      2.46e-05     00000 
    4    -310.0615777725      9.01e-06     00000 
    5    -310.0615793542      3.33e-06     00000 
    6    -310.0615797687      1.55e-06     00000 
    7    -310.0615798437      6.81e-07     00000 
    8    -310.0615798568      2.40e-07     00000 
    9    -310.0615798575      1.06e-07     00000 
   10    -310.0615798577      5.85e-08     00000 
   11    -310.0615798577      3.20e-08     00000 
   12    -310.0615798577      8.35e-09     00000 Convergence criterion met
write pseudocanon occs and virts to disk
write pseudocanon orbital energies to disk
Timing for Total SCF: 293.00s (wall), 1753.84s (cpu)
<S^2> of polarized wavefunction after polarization iterations 0.0000000000
relaxing scfmi constraint to allow all rotations in the entire AO span
Doing General SCFMI
 Exchange:     0.1500 Hartree-Fock + 1.0000 wB97M-V + LR-HF
 Correlation:  1.0000 wB97M-V
 Using Euler-Maclaurin-Lebedev (99,590) quadrature formula
 Nonlocal Correlation:  VV10 with C = 0.0100 and b = 6.00 and scale = 1.00000
 Grid used for NLC:  SG-1 standard quadrature
performing fock build at end of subrot_r(subrot) constructor so that all methods have access
<S^2> of polarized wavefunction before ct-allowed iterations 0.0000000000
Beginning iterations for the determination of the CT-Allowed wavefunction
Energy prior to optimization (guess energy) = -310.061579857737
Begin Timing: Total SCF Calculation
begin iterations for algorithm: DIIS         
the SCF tolerance is set to 1.00e-08
    1    -310.0615798577      9.23e-05     00000 
    2    -310.0624377038      1.06e-05     00000 
    3    -310.0624617820      2.34e-06     00000 
    4    -310.0624623207      1.90e-06     00000 
    5    -310.0624625624      2.62e-07     00000 
    6    -310.0624625690      9.72e-08     00000 
    7    -310.0624625701      2.27e-08     00000 
    8    -310.0624625702      4.97e-09     00000 Convergence criterion met
write pseudocanon occs and virts to disk
write pseudocanon orbital energies to disk
Timing for Total SCF: 187.00s (wall), 1122.35s (cpu)
<S^2> of ct_allowed wavefunction after ct-allowed iterations 0.0000000000

================================
        Results of EDA2         
================================
Basic EDA Quantities
--------------------
Fragment Energies (Ha):
1 -155.0296132132
2 -155.0295826782
--------------------
  E_prp (kJ/mol) = 0.0000
  E_frz (kJ/mol) = -4.8772
  E_pol (kJ/mol) = -1.3820
  E_vct (kJ/mol) = -2.3176
  E_int (kJ/mol) = -8.5768
--------------------


Decomposition of frozen interaction energy
--------------------
  --------------------
  Orthogonal Frozen Decomposition:
  --------------------
     E_elec   (ELEC)   (kJ/mol) = -25.3107
     E_pauli  (PAULI)  (kJ/mol) = 35.7170
     E_disp   (DISP)   (kJ/mol) = -15.2835
  --------------------
  Classical Frozen Decomposition:
  --------------------
     E_cls_elec  (CLS ELEC)  (kJ/mol) = -10.3730
     E_mod_pauli (MOD PAULI) (kJ/mol) = 18.9600 (FRZ - CLS ELEC - CLS DISP)
     E_cls_disp  (CLS DISP)  (kJ/mol) = -13.4642
  --------------------
--------------------

Simplified EDA Summary (kJ/mol)
--------------------
 PREPARATION      0.0000
 FROZEN           -4.8772 (ELEC + PAULI + DISP)
[ELEC + PAULI = 8.5870, DISP = -13.4642]
 POLARIZATION    -1.3820
 CHARGE TRANSFER -2.3176
 TOTAL           -8.5768     (PRP + FRZ + POL + CT)
--------------------
 
 --------------------------------------------------------------
 
                    Orbital Energies (a.u.)
 --------------------------------------------------------------
 
 Alpha MOs
 -- Occupied --
-19.3371 -19.3269 -10.3907 -10.3797 -10.3322 -10.3260  -1.1585  -1.1482
 -0.8792  -0.8692  -0.7314  -0.7226  -0.6370  -0.6288  -0.5870  -0.5656
 -0.5173  -0.5084  -0.4888  -0.4830  -0.4707  -0.4647  -0.4428  -0.4318
 -0.3855  -0.3716
 -- Virtual --
  0.0295   0.0458   0.0518   0.0575   0.0768   0.0837   0.0890   0.0922
  0.1040   0.1218   0.1291   0.1349   0.1426   0.1525   0.1580   0.1713
  0.1720   0.1746   0.1813   0.1944   0.2085   0.2142   0.2181   0.2229
  0.2332   0.2428   0.2505   0.2609   0.2649   0.2802   0.2820   0.2849
  0.2917   0.2962   0.2986   0.3052   0.3107   0.3125   0.3183   0.3192
  0.3231   0.3294   0.3357   0.3436   0.3445   0.3508   0.3527   0.3574
  0.3618   0.3702   0.3758   0.3843   0.3945   0.3990   0.4018   0.4132
  0.4144   0.4203   0.4269   0.4371   0.4408   0.4463   0.4553   0.4617
  0.4642   0.4729   0.4764   0.4824   0.4893   0.4950   0.5045   0.5079
  0.5158   0.5251   0.5276   0.5344   0.5491   0.5556   0.5593   0.5676
  0.5782   0.5805   0.5827   0.5990   0.6150   0.6183   0.6303   0.6351
  0.6369   0.6547   0.6664   0.6774   0.6915   0.6961   0.6988   0.7239
  0.7342   0.7375   0.7414   0.7471   0.7477   0.7568   0.7653   0.7726
  0.7741   0.7846   0.7873   0.7993   0.8045   0.8122   0.8211   0.8333
  0.8406   0.8508   0.8740   0.8797   0.8935   0.9136   0.9364   0.9403
  0.9582   0.9735   0.9780   0.9998   1.0064   1.0094   1.0260   1.0364
  1.0558   1.0572   1.0657   1.0847   1.1137   1.1353   1.1504   1.1531
  1.1697   1.1857   1.2124   1.2184   1.2272   1.2324   1.2502   1.2563
  1.2676   1.2724   1.2777   1.3011   1.3056   1.3245   1.3359   1.3507
  1.3653   1.3708   1.3846   1.3975   1.4132   1.4234   1.4323   1.4436
  1.4509   1.4774   1.4871   1.5026   1.5199   1.5258   1.5497   1.5640
  1.5779   1.6056   1.6152   1.6452   1.6554   1.6651   1.6815   1.6898
  1.6994   1.7107   1.7433   1.7543   1.7658   1.7843   1.7976   1.8169
  1.8214   1.8383   1.9631   1.9709   1.9791   2.0049   2.0202   2.0314
  2.0720   2.1089   2.1169   2.1321   2.1625   2.1987   2.2712   2.2744
  2.2915   2.3172   2.3380   2.3491   2.3934   2.4247   2.4283   2.4639
  2.5155   2.5339   2.7027   2.7171   2.7201   2.7423   2.7783   2.7942
  2.8663   2.8733   2.8797   2.8919   2.9081   2.9259   2.9326   2.9431
  2.9519   2.9709   2.9916   2.9994   3.0054   3.0205   3.0439   3.0480
  3.0576   3.0751   3.0856   3.1028   3.1379   3.1464   3.1722   3.1948
  3.2012   3.2079   3.2181   3.2373   3.2454   3.2662   3.2794   3.2851
  3.2941   3.3017   3.3073   3.3223   3.3411   3.3567   3.3851   3.4191
  3.4340   3.4542   3.4777   3.4881   3.5133   3.5388   3.5471   3.5644
  3.5746   3.5794   3.5841   3.6074   3.6093   3.6259   3.6381   3.6445
  3.7083   3.7176   3.7303   3.7415   3.7729   3.7778   3.8029   3.8177
  3.8242   3.8431   3.9054   3.9135   3.9254   3.9574   4.0001   4.0045
  4.0067   4.0257   4.0469   4.0665   4.0795   4.0971   4.1007   4.1026
  4.1186   4.1332   4.1484   4.1498   4.1605   4.1793   4.2022   4.2173
  4.2289   4.2437   4.2660   4.2722   4.2882   4.2941   4.3121   4.3286
  4.3352   4.3513   4.3651   4.3929   4.4187   4.4503   4.4668   4.4971
  4.5005   4.5083   4.5239   4.5554   4.5664   4.5770   4.5987   4.6379
  4.6558   4.6712   4.6850   4.6900   4.7243   4.7434   4.8304   4.8445
  4.8829   4.8900   4.9439   4.9510   4.9540   4.9566   4.9695   4.9852
  5.0265   5.0318   5.0457   5.0600   5.1141   5.1485   5.2559   5.2707
  5.2927   5.3206   5.3272   5.3350   5.4023   5.4181   5.4280   5.4375
  5.4450   5.4554   5.4670   5.5001   5.5063   5.5490   5.5666   5.5773
  5.6346   5.6524   5.6696   5.7242   5.7420   5.7705   5.7999   5.8061
  5.8462   5.8658   5.9561   5.9676   6.1133   6.1207   6.2577   6.2627
  6.6781   6.6816   6.8226   6.8322   6.8762   6.8904   6.9553   6.9616
  7.0571   7.0828   7.3708   7.3817   7.5553   7.5673   7.7805   7.7867
 23.7798  23.8024  24.0779  24.1204  44.8154  44.8579
 --------------------------------------------------------------
 
          Ground-State Mulliken Net Atomic Charges

     Atom                 Charge (a.u.)
  ----------------------------------------
      1 C                    -0.995341
      2 C                    -0.176708
      3 O                    -0.407667
      4 H                     0.132300
      5 H                     0.281116
      6 H                     0.213454
      7 H                     0.335457
      8 H                     0.234464
      9 H                     0.380616
     10 C                    -1.002272
     11 C                     0.121146
     12 O                    -0.411945
     13 H                     0.134349
     14 H                     0.249881
     15 H                     0.257374
     16 H                     0.327224
     17 H                     0.061030
     18 H                     0.265521
  ----------------------------------------
  Sum of atomic charges =     0.000000

 -----------------------------------------------------------------
                    Cartesian Multipole Moments
 -----------------------------------------------------------------
    Charge (ESU x 10^10)
                 0.0000
    Dipole Moment (Debye)
         X      -1.3739      Y       0.0320      Z      -0.3852
       Tot       1.4272
    Quadrupole Moments (Debye-Ang)
        XX     -45.8682     XY      -1.6591     YY     -37.3592
        XZ       5.3929     YZ       1.0162     ZZ     -39.0613
    Octopole Moments (Debye-Ang^2)
       XXX     -18.9515    XXY      -1.3924    XYY       6.3616
       YYY     -20.4940    XXZ       2.9516    XYZ      -9.6019
       YYZ      -2.3992    XZZ       0.6571    YZZ      -6.9165
       ZZZ      -0.5382
    Hexadecapole Moments (Debye-Ang^3)
      XXXX   -1076.6400   XXXY      -7.7101   XXYY    -194.9155
      XYYY     -10.7839   YYYY    -246.8418   XXXZ      28.4546
      XXYZ      -5.4834   XYYZ      21.1858   YYYZ       6.0259
      XXZZ    -182.7670   XYZZ       1.3424   YYZZ     -64.5294
      XZZZ       7.8673   YZZZ       2.3980   ZZZZ    -134.7409
 -----------------------------------------------------------------
 Total job time:  1503.21s(wall), 5574.19s(cpu) 
 Fri Feb 28 16:49:17 2025

        *************************************************************
        *                                                           *
        *  Thank you very much for using Q-Chem.  Have a nice day.  *
        *                                                           *
        *************************************************************


