
Running Job 1 of 1 004_ethanol_dimer_10_almo.inp
qchem 004_ethanol_dimer_10_almo.inp_100968.0 /scratch/qchem100968/ 6
/home/kchung25/qchem/5.4.0/exe/qcprog.exe_s 004_ethanol_dimer_10_almo.inp_100968.0 /scratch/qchem100968/
                  Welcome to Q-Chem
     A Quantum Leap Into The Future Of Chemistry


 Q-Chem 5.4, Q-Chem, Inc., Pleasanton, CA (2021)

 E. Epifanovsky,  A. T. B. Gilbert,  Xintian Feng,  Joonho Lee,  Yuezhi Mao,  
 N. Mardirossian,  P. Pokhilko,  A. White,  M. Wormit,  M. P. Coons,  
 A. L. Dempwolff,  Zhengting Gan,  D. Hait,  P. R. Horn,  L. D. Jacobson,  
 I. Kaliman,  J. Kussmann,  A. W. Lange,  Ka Un Lao,  D. S. Levine,  Jie Liu,  
 S. C. McKenzie,  A. F. Morrison,  K. Nanda,  F. Plasser,  D. R. Rehn,  
 M. L. Vidal,  Zhi-Qiang You,  Ying Zhu,  B. Alam,  B. Albrecht,  
 A. Aldossary,  E. Alguire,  J. H. Andersen,  D. Barton,  K. Begam,  A. Behn,  
 Y. A. Bernard,  E. J. Berquist,  H. Burton,  A. Carreras,  K. Carter-Fenk,  
 Romit Chakraborty,  A. D. Chien,  K. D. Closser,  V. Cofer-Shabica,  
 S. Dasgupta,  Jia Deng,  M. de Wergifosse,  M. Diedenhofen,  Hainam Do,  
 S. Ehlert,  Po-Tung Fang,  S. Fatehi,  Qingguo Feng,  T. Friedhoff,  
 J. Gayvert,  Qinghui Ge,  G. Gidofalvi,  M. Goldey,  J. Gomes,  
 C. Gonzalez-Espinoza,  S. Gulania,  A. Gunina,  M. W. D. Hanson-Heine,  
 P. H. P. Harbach,  A. W. Hauser,  M. F. Herbst,  M. Hernandez Vera,  
 M. Hodecker,  Z. C. Holden,  S. Houck,  Xunkun Huang,  Kerwin Hui,  
 B. C. Huynh,  M. Ivanov,  Hyunjun Ji,  Hanjie Jiang,  B. Kaduk,  S. Kaehler,  
 K. Khistyaev,  Jaehoon Kim,  P. Klunzinger,  Z. Koczor-Benda,  
 Joong Hoon Koh,  D. Kosenkov,  L. Koulias,  T. Kowalczyk,  C. M. Krauter,  
 K. Kue,  A. Kunitsa,  T. Kus,  A. Landau,  K. V. Lawler,  D. Lefrancois,  
 S. Lehtola,  Rain Li,  Yi-Pei Li,  Jiashu Liang,  M. Liebenthal,  
 Hung-Hsuan Lin,  You-Sheng Lin,  Fenglai Liu,  Kuan-Yu Liu,  
 M. Loipersberger,  A. Luenser,  A. Manjanath,  P. Manohar,  E. Mansoor,  
 S. F. Manzer,  Shan-Ping Mao,  A. V. Marenich,  T. Markovich,  S. Mason,  
 S. A. Maurer,  P. F. McLaughlin,  M. F. S. J. Menger,  J.-M. Mewes,  
 S. A. Mewes,  P. Morgante,  J. W. Mullinax,  K. J. Oosterbaan,  G. Paran,  
 Alexander C. Paul,  Suranjan K. Paul,  F. Pavosevic,  Zheng Pei,  S. Prager,  
 E. I. Proynov,  E. Ramos,  B. Rana,  A. E. Rask,  A. Rettig,  R. M. Richard,  
 F. Rob,  E. Rossomme,  T. Scheele,  M. Scheurer,  M. Schneider,  
 N. Sergueev,  S. M. Sharada,  W. Skomorowski,  D. W. Small,  C. J. Stein,  
 Yu-Chuan Su,  E. J. Sundstrom,  Zhen Tao,  J. Thirman,  T. Tsuchimochi,  
 N. M. Tubman,  S. P. Veccham,  O. Vydrov,  J. Wenzel,  J. Witte,  A. Yamada,  
 Kun Yao,  S. Yeganeh,  S. R. Yost,  A. Zech,  Igor Ying Zhang,  Xing Zhang,  
 Yu Zhang,  D. Zuev,  A. Aspuru-Guzik,  A. T. Bell,  N. A. Besley,  
 K. B. Bravaya,  B. R. Brooks,  D. Casanova,  Jeng-Da Chai,  S. Coriani,  
 C. J. Cramer,  A. E. DePrince, III,  R. A. DiStasio Jr.,  A. Dreuw,  
 B. D. Dunietz,  T. R. Furlani,  W. A. Goddard III,  S. Grimme,  
 S. Hammes-Schiffer,  T. Head-Gordon,  W. J. Hehre,  Chao-Ping Hsu,  
 T.-C. Jagau,  Yousung Jung,  A. Klamt,  Jing Kong,  D. S. Lambrecht,  
 WanZhen Liang,  N. J. Mayhall,  C. W. McCurdy,  J. B. Neaton,  T. Neudecker,  
 C. Ochsenfeld,  J. A. Parkhill,  R. Peverati,  V. A. Rassolov,  Yihan Shao,  
 L. V. Slipchenko,  R. P. Steele,  J. E. Subotnik,  A. J. W. Thom,  
 A. Tkatchenko,  D. G. Truhlar,  T. Van Voorhis,  T. A. Wesolowski,  
 K. B. Whaley,  H. L. Woodcock III,  P. M. Zimmerman,  S. Faraji,  
 P. M. W. Gill,  M. Head-Gordon,  J. M. Herbert,  A. I. Krylov

 Additional authors since Version 5.4.0: 
 Chandrima Chakravarty,  L. Cunha,  R. Kang,  Yongbin Kim,  S. Kotaru,  
 Shaozhi Li,  Xiangyuan Li,  F. Matz,  A. Molle,  V. Parravicini,  
 Haisheng Ren,  Hengyuan Shen,  Yingli Su,  Hung-Yi Tsai,  C. Utku,  
 Fang Wang,  Jeff Yang,  F. Zeller

 Contributors to earlier versions of Q-Chem not listed above: 
 R. D. Adamson,  B. Austin,  R. Baer,  J. Baker,  G. J. O. Beran,  
 K. Brandhorst,  S. T. Brown,  E. F. C. Byrd,  Arup K. Chakraborty,  
 G. K. L. Chan,  Chun-Min Chang,  Yunqing Chen,  C.-L. Cheng,  
 Siu Hung Chien,  D. M. Chipman,  D. L. Crittenden,  H. Dachsel,  
 R. J. Doerksen,  A. D. Dutoi,  R. G. Edgar,  J. Fosso-Tande,  
 L. Fusti-Molnar,  D. Ghosh,  A. Ghysels,  A. Golubeva-Zadorozhnaya,  
 J. Gonthier,  M. S. Gordon,  S. R. Gwaltney,  G. Hawkins,  J. E. Herr,  
 A. Heyden,  S. Hirata,  E. G. Hohenstein,  G. Kedziora,  F. J. Keil,  
 C. Kelley,  Jihan Kim,  R. A. King,  R. Z. Khaliullin,  P. P. Korambath,  
 W. Kurlancheek,  A. Laurent,  A. M. Lee,  M. S. Lee,  S. V. Levchenko,  
 Ching Yeh Lin,  D. Liotard,  E. Livshits,  R. C. Lochan,  I. Lotan,  
 L. A. Martinez-Martinez,  P. E. Maslen,  N. Nair,  D. P. O'Neill,  
 D. Neuhauser,  E. Neuscamman,  C. M. Oana,  R. Olivares-Amaya,  R. Olson,  
 T. M. Perrine,  B. Peters,  P. A. Pieniazek,  A. Prociuk,  Y. M. Rhee,  
 J. Ritchie,  M. A. Rohrdanz,  E. Rosta,  N. J. Russ,  H. F. Schaefer III,  
 M. W. Schmidt,  N. E. Schultz,  S. Sharma,  N. Shenvi,  C. D. Sherrill,  
 A. C. Simmonett,  A. Sodt,  T. Stein,  D. Stuck,  K. S. Thanthiriwatte,  
 V. Vanovschi,  L. Vogt,  Tao Wang,  A. Warshel,  M. A. Watson,  
 C. F. Williams,  Q. Wu,  X. Xu,  Jun Yang,  W. Zhang,  Yan Zhao

   Please cite Q-Chem as follows:
  "Software for the frontiers of quantum chemistry:
   An overview of developments in the Q-Chem 5 package"
   J. Chem. Phys. 155, 084801 (2021)
   https://doi.org/10.1063/5.0055522 (open access)

 Q-Chem 5.4.2 for Intel X86 EM64T Linux

 Parts of Q-Chem use Armadillo 9.900.5 (Nocturnal Misbehaviour).
 http://arma.sourceforge.net/

 Q-Chem begins on Fri Feb 28 03:26:04 2025  

 Host: 
0

     Scratch files written to /scratch/qchem100968//
 Dec1321 |scratch|qcdevops|jenkins|workspace|build_RNUM 5684   
 Processing $rem in /home/kchung25/qchem/5.4.0/config/preferences:
 Processing $rem in /home/kchung25/.qchemrc:

 Q-Chem warning in module libgen/rem_setup.C, line 3079:

 Neither GIA nor STOLL is specified by user. Use STOLL as the default


 Checking the input file for inconsistencies... 	...done.

--------------------------------------------------------------
User input:
--------------------------------------------------------------
$molecule
0 1
--
0 1
C   -1.728409   1.254876  -0.147483
C   -2.155839  -0.184467  -0.161942
O   -1.284854  -0.905180   0.697135
H   -1.579809  -1.816618   0.758447
H   -2.379735   1.857622  -0.781622
H   -0.705888   1.354837  -0.519189
H   -1.764807   1.654841   0.867529
H   -2.104620  -0.586825  -1.182497
H   -3.193108  -0.281229   0.182657
--
0 1
C    2.200284   0.356176   0.934402
C    1.925813   0.266620  -0.546673
O    1.131569  -0.840507  -0.881891
H    0.381752  -0.875127  -0.267210
H    2.843390   1.207352   1.168566
H    2.687622  -0.554241   1.289671
H    1.265309   0.476477   1.490262
H    2.861322   0.162718  -1.104886
H    1.463757   1.206462  -0.893503
$end

$rem
JOBTYPE          eda
EDA2             1
METHOD           wB97M-V
BASIS            def2-TZVPPD
SYMMETRY         false
MEM_TOTAL        50000
MEM_STATIC       10000
THRESH           14
SCF_CONVERGENCE  8
XC_GRID          000099000590
NL_GRID          1
EDA_CLS_DISP     true
FD_MAT_VEC_PROD  FALSE
$end
--------------------------------------------------------------
 ----------------------------------------------------------------
             Standard Nuclear Orientation (Angstroms)
    I     Atom           X                Y                Z
 ----------------------------------------------------------------
    1      C       1.7284088581    -1.2548761529    -0.1474826646
    2      C       2.1558389992     0.1844668011    -0.1619420656
    3      O       1.2848540679     0.9051801265     0.6971347310
    4      H       1.5798091571     1.8166181147     0.7584464771
    5      H       2.3797348005    -1.8576223939    -0.7816214947
    6      H       0.7058878492    -1.3548371565    -0.5191886391
    7      H       1.7648068165    -1.6548408730     0.8675294472
    8      H       2.1046200411     0.5868245211    -1.1824971782
    9      H       3.1931080079     0.2812287957     0.1826569098
   10      C      -2.2002840564    -0.3561754656     0.9344020750
   11      C      -1.9258130441    -0.2666199062    -0.5466729493
   12      O      -1.1315689347     0.8405069223    -0.8818912567
   13      H      -0.3817519328     0.8751270205    -0.2672102646
   14      H      -2.8433901404    -1.2073513371     1.1685663113
   15      H      -2.6876219680     0.5542416814     1.2896708196
   16      H      -1.2653090695    -0.4764764020     1.4902621109
   17      H      -2.8613220326    -0.1627179704    -1.1048859806
   18      H      -1.4637571354    -1.2064620484    -0.8935026857
 ----------------------------------------------------------------
 Molecular Point Group                 C1    NOp =  1
 Largest Abelian Subgroup              C1    NOp =  1
 Nuclear Repulsion Energy =         260.43368076 hartrees
 There are       26 alpha and       26 beta electrons
 Requested basis set is def2-TZVPPD
 There are 164 shells and 432 basis functions

 Q-Chem warning in module libmdc/get_mega.C, line 171:

 Allowed MEM_STATIC has been capped at MEM_STATIC=8191.
 Reduce the value of MEM_STATIC to silence this warning.


 Total QAlloc Memory Limit  50000 MB
 Mega-Array Size      8007 MB
 MEM_STATIC part      8191 MB
 A cutoff of  1.0D-14 yielded  12631 shell pairs
 There are     87663 function pairs (    108083 Cartesian)
 Smallest overlap matrix eigenvalue = 4.17E-06

 Scale SEOQF with 1.000000e-01/1.000000e-01/1.000000e-01

 Standard Electronic Orientation quadrupole field applied
 Nucleus-field energy     =     0.0000000060 hartrees

 -----------------------------------------------------------------------
  General SCF calculation program by
  Eric Jon Sundstrom, Paul Horn, Yuezhi Mao, Dmitri Zuev, Alec White,
  David Stuck, Shaama M.S., Shane Yost, Joonho Lee, David Small,
  Daniel Levine, Susi Lehtola, Hugh Burton, Evgeny Epifanovsky,
  Bang C. Huynh
 -----------------------------------------------------------------------
================================================================
                 ALMO-EDA with the EDA2 driver                  
================================================================
 The second-generation ALMO-EDA (for DFT):                      
 P. R. Horn, Y. Mao and M. Head-Gordon, PCCP, 18, 23067 (2016)  
 Y. Mao et al. Annu. Rev. Phys. Chem. 72, 641 (2021)            
 Decomposition of the frozen energy:                            
 P. R. Horn, Y. Mao and M. Head-Gordon, JCP, 144, 114107 (2016) 
 FERF model for polarization:                                   
 P. R. Horn and M. Head-Gordon, JCP, 143, 114111 (2015)         
================================================================
 Using eda2 option set 1
 Option set summary: Frozen orbital wavefunction, initial wavefunction decomposition, and nDQ polarization.
--------------------------------
Printing EDA Options
--------------------------------
eda_child_super_basis      0
fragmo_guess_mode          0
child_mp                   1
child_mp_orders            232
cls_elec                   1
cls_disp                   1
scfmi_mode                 1
scfmi_occs                 0
scfmi_virts                0
frz_relax                  0
frz_relax_method           0
dc_pen_start               0
dc_pen_conv                0
dc_pen_increment           0
dc_pen_steps               0
dc_pen_thresh_factor       0
dc_pen_pre_newton_thresh   0
frz_ortho_decomp           1
frz_ortho_decomp_conv      6
plot_mo_ortho_frz          0
frgm_method                2
scfmi_freeze_ss            0
separate_rehyb             0
plot_diff_den              0
eda_nocv                   0
eda_vct_relax              1
disp_free_x                0
disp_free_c                0
eda_bsse                   0
eda_pct_a                  0
eda_covp                   0
--------------------------------
Attempting to make child job directory: /scratch/qchem100968//Frg1/
Attempting to make child job directory: /scratch/qchem100968//Frg2/
Creating input file /scratch/qchem100968/Frg1.input
using default PutDataFrgm: nothing
calling putenv with: QCSCRATCH=/scratch/qchem100968/ 
Spawning Job For Fragment 0
Done Job For Fragment 0
calling putenv with: QCSCRATCH=/scratch 
calling putenv with: QCTHREADS=6 
Creating input file /scratch/qchem100968/Frg2.input
using default PutDataFrgm: nothing
calling putenv with: QCSCRATCH=/scratch/qchem100968/ 
Spawning Job For Fragment 1
Done Job For Fragment 1
calling putenv with: QCSCRATCH=/scratch 
calling putenv with: QCTHREADS=6 
Doing General SCFMI
 Exchange:     0.1500 Hartree-Fock + 1.0000 wB97M-V + LR-HF
 Correlation:  1.0000 wB97M-V
 Using Euler-Maclaurin-Lebedev (99,590) quadrature formula
 Nonlocal Correlation:  VV10 with C = 0.0100 and b = 6.00 and scale = 1.00000
 Grid used for NLC:  SG-1 standard quadrature
performing fock build before subrot guess so that all methods have access
Printing subrot_rss_gen Method Specification:
Occupied Subspace Method is 0
Virtual Subspace Method is 0
Energy of the unrelaxed supersystem initial determinant -310.062061734435
write pseudocanon occs and virts to disk
write pseudocanon orbital energies to disk
Tolerance of ortho_decomp_scf: 1.00e-06
GDM subspace size: 20
Beginning the Orthogonal Decomposition of the Initial Supersystem Wavefunction
    1    -310.0075158234      9.32e-02     ortho_decomp Preconditoned Steepest Descent
    2    -310.0141272810      2.10e-03     ortho_decomp BFGS Step
    3    -310.0141474473      1.60e-04     ortho_decomp BFGS Step
    4    -310.0141474739      5.43e-06     ortho_decomp BFGS Step
    5    -310.0141474740      2.11e-07     ortho_decomp 00000 Convergence criterion met
 Hartree-Fock
 Hartree-Fock
 Hartree-Fock
 Exchange:     0.1500 Hartree-Fock + 1.0000 wB97M-V + LR-HF
 Correlation:  1.0000 wB97M-V
 Using Euler-Maclaurin-Lebedev (99,590) quadrature formula
 Nonlocal Correlation:  VV10 with C = 0.0100 and b = 6.00 and scale = 1.00000
 Grid used for NLC:  SG-1 standard quadrature
 Long-range K will be added via erf
 Coulomb attenuation parameter = 0.3 bohr**(-1)
 Nonlocal correlation = 2.035293049822e-01
Doing General SCFMI
 Exchange:     0.1500 Hartree-Fock + 1.0000 wB97M-V + LR-HF
 Correlation:  1.0000 wB97M-V
 Using Euler-Maclaurin-Lebedev (99,590) quadrature formula
 Nonlocal Correlation:  VV10 with C = 0.0100 and b = 6.00 and scale = 1.00000
 Grid used for NLC:  SG-1 standard quadrature
performing fock build at end of subrot_r(subrot) constructor so that all methods have access
<S^2> of initial wavefunction before polarization iterations 0.0000000000
Beginning iterations for the determination of the polarized wavefunction
Energy prior to optimization (guess energy) = -310.062061734435
Begin Timing: Total SCF Calculation
begin iterations for algorithm: DIIS         
the SCF tolerance is set to 1.00e-08
    1    -310.0620617344      3.05e-04     00000 
    2    -310.0646448835      9.80e-05     00000 
    3    -310.0648571540      5.67e-05     00000 
    4    -310.0649078697      2.36e-05     00000 
    5    -310.0649193979      7.48e-06     00000 
    6    -310.0649227427      3.29e-06     00000 
    7    -310.0649232814      1.70e-06     00000 
    8    -310.0649234191      6.98e-07     00000 
    9    -310.0649234312      3.17e-07     00000 
   10    -310.0649234334      1.23e-07     00000 
   11    -310.0649234337      5.77e-08     00000 
   12    -310.0649234337      2.46e-08     00000 
   13    -310.0649234337      1.09e-08     00000 
   14    -310.0649234337      4.08e-09     00000 Convergence criterion met
write pseudocanon occs and virts to disk
write pseudocanon orbital energies to disk
Timing for Total SCF: 350.00s (wall), 2100.15s (cpu)
<S^2> of polarized wavefunction after polarization iterations 0.0000000000
relaxing scfmi constraint to allow all rotations in the entire AO span
Doing General SCFMI
 Exchange:     0.1500 Hartree-Fock + 1.0000 wB97M-V + LR-HF
 Correlation:  1.0000 wB97M-V
 Using Euler-Maclaurin-Lebedev (99,590) quadrature formula
 Nonlocal Correlation:  VV10 with C = 0.0100 and b = 6.00 and scale = 1.00000
 Grid used for NLC:  SG-1 standard quadrature
performing fock build at end of subrot_r(subrot) constructor so that all methods have access
<S^2> of polarized wavefunction before ct-allowed iterations 0.0000000000
Beginning iterations for the determination of the CT-Allowed wavefunction
Energy prior to optimization (guess energy) = -310.064923433736
Begin Timing: Total SCF Calculation
begin iterations for algorithm: DIIS         
the SCF tolerance is set to 1.00e-08
    1    -310.0649234337      1.85e-04     00000 
    2    -310.0685535132      2.72e-05     00000 
    3    -310.0686773596      1.21e-05     00000 
    4    -310.0686865166      5.49e-06     00000 
    5    -310.0686889328      5.79e-07     00000 
    6    -310.0686889869      2.89e-07     00000 
    7    -310.0686889976      7.60e-08     00000 
    8    -310.0686889982      3.06e-08     00000 
    9    -310.0686889983      8.95e-09     00000 Convergence criterion met
write pseudocanon occs and virts to disk
write pseudocanon orbital energies to disk
Timing for Total SCF: 217.00s (wall), 1302.86s (cpu)
<S^2> of ct_allowed wavefunction after ct-allowed iterations 0.0000000000

================================
        Results of EDA2         
================================
Basic EDA Quantities
--------------------
Fragment Energies (Ha):
1 -155.0296658401
2 -155.0289741138
--------------------
  E_prp (kJ/mol) = 0.0000
  E_frz (kJ/mol) = -8.9840
  E_pol (kJ/mol) = -7.5135
  E_vct (kJ/mol) = -9.8866
  E_int (kJ/mol) = -26.3841
--------------------


Decomposition of frozen interaction energy
--------------------
  --------------------
  Orthogonal Frozen Decomposition:
  --------------------
     E_elec   (ELEC)   (kJ/mol) = -82.8626
     E_pauli  (PAULI)  (kJ/mol) = 93.6521
     E_disp   (DISP)   (kJ/mol) = -19.7735
  --------------------
  Classical Frozen Decomposition:
  --------------------
     E_cls_elec  (CLS ELEC)  (kJ/mol) = -42.0961
     E_mod_pauli (MOD PAULI) (kJ/mol) = 50.1256 (FRZ - CLS ELEC - CLS DISP)
     E_cls_disp  (CLS DISP)  (kJ/mol) = -17.0134
  --------------------
--------------------

Simplified EDA Summary (kJ/mol)
--------------------
 PREPARATION      0.0000
 FROZEN           -8.9840 (ELEC + PAULI + DISP)
[ELEC + PAULI = 8.0294, DISP = -17.0134]
 POLARIZATION    -7.5135
 CHARGE TRANSFER -9.8866
 TOTAL           -26.3841     (PRP + FRZ + POL + CT)
--------------------
 
 --------------------------------------------------------------
 
                    Orbital Energies (a.u.)
 --------------------------------------------------------------
 
 Alpha MOs
 -- Occupied --
-19.3542 -19.3061 -10.3992 -10.3722 -10.3371 -10.3205  -1.1737  -1.1307
 -0.8862  -0.8568  -0.7400  -0.7279  -0.6496  -0.6061  -0.5790  -0.5499
 -0.5393  -0.5257  -0.4942  -0.4802  -0.4697  -0.4597  -0.4518  -0.4143
 -0.3945  -0.3605
 -- Virtual --
  0.0287   0.0489   0.0572   0.0614   0.0767   0.0848   0.0961   0.1027
  0.1095   0.1293   0.1343   0.1383   0.1437   0.1582   0.1603   0.1667
  0.1796   0.1824   0.1893   0.1941   0.1994   0.2146   0.2193   0.2320
  0.2352   0.2498   0.2576   0.2621   0.2663   0.2717   0.2783   0.2837
  0.2886   0.2946   0.3071   0.3120   0.3138   0.3153   0.3203   0.3260
  0.3285   0.3315   0.3380   0.3411   0.3482   0.3503   0.3537   0.3626
  0.3678   0.3766   0.3875   0.3936   0.3955   0.4000   0.4044   0.4116
  0.4122   0.4155   0.4234   0.4310   0.4371   0.4435   0.4515   0.4615
  0.4634   0.4703   0.4732   0.4765   0.4819   0.4919   0.4932   0.5016
  0.5031   0.5244   0.5308   0.5366   0.5439   0.5554   0.5635   0.5690
  0.5759   0.5825   0.5919   0.5992   0.6136   0.6154   0.6254   0.6450
  0.6564   0.6635   0.6764   0.6807   0.6911   0.7038   0.7066   0.7182
  0.7244   0.7298   0.7404   0.7498   0.7553   0.7631   0.7643   0.7718
  0.7789   0.7849   0.7901   0.7977   0.8043   0.8137   0.8364   0.8383
  0.8437   0.8521   0.8684   0.8808   0.8942   0.9237   0.9325   0.9457
  0.9511   0.9750   0.9824   1.0009   1.0146   1.0195   1.0393   1.0454
  1.0630   1.0758   1.0903   1.1075   1.1378   1.1554   1.1598   1.1739
  1.1931   1.2042   1.2215   1.2327   1.2386   1.2484   1.2549   1.2633
  1.2810   1.2868   1.2965   1.3073   1.3169   1.3208   1.3399   1.3587
  1.3693   1.3808   1.3951   1.4023   1.4165   1.4209   1.4367   1.4492
  1.4555   1.4815   1.4887   1.5043   1.5349   1.5437   1.5473   1.5824
  1.5881   1.6168   1.6421   1.6535   1.6678   1.6738   1.6750   1.6845
  1.6994   1.7139   1.7315   1.7606   1.7682   1.7727   1.7879   1.7996
  1.8484   1.8746   1.9318   1.9582   1.9764   2.0097   2.0279   2.0429
  2.0888   2.1153   2.1338   2.1743   2.2085   2.2290   2.2421   2.2880
  2.2937   2.3079   2.3649   2.4069   2.4313   2.4348   2.4677   2.4856
  2.5072   2.5682   2.6981   2.7097   2.7231   2.7675   2.7782   2.8164
  2.8504   2.8562   2.8637   2.8994   2.9064   2.9190   2.9403   2.9504
  2.9581   2.9661   2.9850   2.9899   3.0100   3.0228   3.0359   3.0525
  3.0884   3.1027   3.1089   3.1238   3.1415   3.1503   3.1775   3.1895
  3.2103   3.2218   3.2249   3.2443   3.2486   3.2704   3.2760   3.2968
  3.2979   3.3109   3.3179   3.3254   3.3368   3.3631   3.3822   3.4025
  3.4539   3.4591   3.4876   3.4976   3.5122   3.5308   3.5406   3.5535
  3.5658   3.5934   3.6042   3.6245   3.6343   3.6456   3.6959   3.7026
  3.7190   3.7458   3.7553   3.7614   3.7683   3.7831   3.8002   3.8067
  3.8228   3.8670   3.8963   3.9150   3.9222   3.9660   3.9974   4.0064
  4.0100   4.0284   4.0330   4.0617   4.0709   4.0886   4.0989   4.1117
  4.1213   4.1349   4.1469   4.1582   4.1845   4.2041   4.2257   4.2280
  4.2423   4.2530   4.2686   4.2729   4.2945   4.3037   4.3331   4.3371
  4.3531   4.3660   4.4144   4.4157   4.4399   4.4551   4.4724   4.4758
  4.4824   4.4991   4.5241   4.5418   4.5486   4.5976   4.6306   4.6351
  4.6463   4.6885   4.6913   4.7107   4.7335   4.7761   4.8135   4.8412
  4.8501   4.8614   4.9284   4.9542   4.9604   4.9706   4.9789   4.9978
  5.0075   5.0422   5.0514   5.0927   5.1201   5.1556   5.2352   5.2599
  5.3007   5.3148   5.3321   5.3894   5.4156   5.4261   5.4372   5.4443
  5.4505   5.4641   5.4797   5.4850   5.5246   5.5310   5.5912   5.6034
  5.6261   5.6337   5.6837   5.7212   5.7488   5.7558   5.7649   5.8082
  5.8299   5.8471   5.9275   5.9543   6.0834   6.1586   6.2703   6.3524
  6.6516   6.6731   6.8466   6.8668   6.8826   6.9063   6.9973   7.0359
  7.0891   7.1326   7.3700   7.4165   7.5560   7.6479   7.7973   7.8766
 23.7576  23.8157  24.0727  24.0912  44.8036  44.8665
 --------------------------------------------------------------
 
          Ground-State Mulliken Net Atomic Charges

     Atom                 Charge (a.u.)
  ----------------------------------------
      1 C                    -0.794303
      2 C                    -0.281815
      3 O                    -0.393244
      4 H                     0.134493
      5 H                     0.338605
      6 H                     0.090593
      7 H                     0.256121
      8 H                     0.297087
      9 H                     0.380212
     10 C                    -0.874299
     11 C                    -0.245826
     12 O                    -0.479738
     13 H                     0.242613
     14 H                     0.300687
     15 H                     0.276376
     16 H                     0.232170
     17 H                     0.283747
     18 H                     0.236521
  ----------------------------------------
  Sum of atomic charges =     0.000000

 -----------------------------------------------------------------
                    Cartesian Multipole Moments
 -----------------------------------------------------------------
    Charge (ESU x 10^10)
                -0.0000
    Dipole Moment (Debye)
         X       2.2527      Y      -0.3918      Z       0.7578
       Tot       2.4089
    Quadrupole Moments (Debye-Ang)
        XX     -35.5324     XY       4.2277     YY     -38.3957
        XZ      -1.5980     YZ       2.5959     ZZ     -43.6085
    Octopole Moments (Debye-Ang^2)
       XXX       9.0955    XXY       3.8777    XYY      11.0153
       YYY      15.3465    XXZ      -0.3883    XYZ      -0.5394
       YYZ       5.0616    XZZ       2.9351    YZZ       0.5947
       ZZZ       0.3612
    Hexadecapole Moments (Debye-Ang^3)
      XXXX    -850.8667   XXXY      13.2784   XXYY    -173.8530
      XYYY      21.9896   YYYY    -206.2050   XXXZ      13.8513
      XXYZ       7.3547   XYYZ       2.8746   YYYZ      11.6738
      XXZZ    -177.6156   XYZZ       2.4495   YYZZ     -64.9075
      XZZZ       6.4859   YZZZ       2.9823   ZZZZ    -184.5284
 -----------------------------------------------------------------
 Total job time:  1615.43s(wall), 6163.24s(cpu) 
 Fri Feb 28 03:52:59 2025

        *************************************************************
        *                                                           *
        *  Thank you very much for using Q-Chem.  Have a nice day.  *
        *                                                           *
        *************************************************************


