
Running Job 1 of 1 004_ethanol_dimer_37_almo.inp
qchem 004_ethanol_dimer_37_almo.inp_134885.0 /scratch/qchem134885/ 6
/home/kchung25/qchem/5.4.0/exe/qcprog.exe_s 004_ethanol_dimer_37_almo.inp_134885.0 /scratch/qchem134885/
                  Welcome to Q-Chem
     A Quantum Leap Into The Future Of Chemistry


 Q-Chem 5.4, Q-Chem, Inc., Pleasanton, CA (2021)

 E. Epifanovsky,  A. T. B. Gilbert,  Xintian Feng,  Joonho Lee,  Yuezhi Mao,  
 N. Mardirossian,  P. Pokhilko,  A. White,  M. Wormit,  M. P. Coons,  
 A. L. Dempwolff,  Zhengting Gan,  D. Hait,  P. R. Horn,  L. D. Jacobson,  
 I. Kaliman,  J. Kussmann,  A. W. Lange,  Ka Un Lao,  D. S. Levine,  Jie Liu,  
 S. C. McKenzie,  A. F. Morrison,  K. Nanda,  F. Plasser,  D. R. Rehn,  
 M. L. Vidal,  Zhi-Qiang You,  Ying Zhu,  B. Alam,  B. Albrecht,  
 A. Aldossary,  E. Alguire,  J. H. Andersen,  D. Barton,  K. Begam,  A. Behn,  
 Y. A. Bernard,  E. J. Berquist,  H. Burton,  A. Carreras,  K. Carter-Fenk,  
 Romit Chakraborty,  A. D. Chien,  K. D. Closser,  V. Cofer-Shabica,  
 S. Dasgupta,  Jia Deng,  M. de Wergifosse,  M. Diedenhofen,  Hainam Do,  
 S. Ehlert,  Po-Tung Fang,  S. Fatehi,  Qingguo Feng,  T. Friedhoff,  
 J. Gayvert,  Qinghui Ge,  G. Gidofalvi,  M. Goldey,  J. Gomes,  
 C. Gonzalez-Espinoza,  S. Gulania,  A. Gunina,  M. W. D. Hanson-Heine,  
 P. H. P. Harbach,  A. W. Hauser,  M. F. Herbst,  M. Hernandez Vera,  
 M. Hodecker,  Z. C. Holden,  S. Houck,  Xunkun Huang,  Kerwin Hui,  
 B. C. Huynh,  M. Ivanov,  Hyunjun Ji,  Hanjie Jiang,  B. Kaduk,  S. Kaehler,  
 K. Khistyaev,  Jaehoon Kim,  P. Klunzinger,  Z. Koczor-Benda,  
 Joong Hoon Koh,  D. Kosenkov,  L. Koulias,  T. Kowalczyk,  C. M. Krauter,  
 K. Kue,  A. Kunitsa,  T. Kus,  A. Landau,  K. V. Lawler,  D. Lefrancois,  
 S. Lehtola,  Rain Li,  Yi-Pei Li,  Jiashu Liang,  M. Liebenthal,  
 Hung-Hsuan Lin,  You-Sheng Lin,  Fenglai Liu,  Kuan-Yu Liu,  
 M. Loipersberger,  A. Luenser,  A. Manjanath,  P. Manohar,  E. Mansoor,  
 S. F. Manzer,  Shan-Ping Mao,  A. V. Marenich,  T. Markovich,  S. Mason,  
 S. A. Maurer,  P. F. McLaughlin,  M. F. S. J. Menger,  J.-M. Mewes,  
 S. A. Mewes,  P. Morgante,  J. W. Mullinax,  K. J. Oosterbaan,  G. Paran,  
 Alexander C. Paul,  Suranjan K. Paul,  F. Pavosevic,  Zheng Pei,  S. Prager,  
 E. I. Proynov,  E. Ramos,  B. Rana,  A. E. Rask,  A. Rettig,  R. M. Richard,  
 F. Rob,  E. Rossomme,  T. Scheele,  M. Scheurer,  M. Schneider,  
 N. Sergueev,  S. M. Sharada,  W. Skomorowski,  D. W. Small,  C. J. Stein,  
 Yu-Chuan Su,  E. J. Sundstrom,  Zhen Tao,  J. Thirman,  T. Tsuchimochi,  
 N. M. Tubman,  S. P. Veccham,  O. Vydrov,  J. Wenzel,  J. Witte,  A. Yamada,  
 Kun Yao,  S. Yeganeh,  S. R. Yost,  A. Zech,  Igor Ying Zhang,  Xing Zhang,  
 Yu Zhang,  D. Zuev,  A. Aspuru-Guzik,  A. T. Bell,  N. A. Besley,  
 K. B. Bravaya,  B. R. Brooks,  D. Casanova,  Jeng-Da Chai,  S. Coriani,  
 C. J. Cramer,  A. E. DePrince, III,  R. A. DiStasio Jr.,  A. Dreuw,  
 B. D. Dunietz,  T. R. Furlani,  W. A. Goddard III,  S. Grimme,  
 S. Hammes-Schiffer,  T. Head-Gordon,  W. J. Hehre,  Chao-Ping Hsu,  
 T.-C. Jagau,  Yousung Jung,  A. Klamt,  Jing Kong,  D. S. Lambrecht,  
 WanZhen Liang,  N. J. Mayhall,  C. W. McCurdy,  J. B. Neaton,  T. Neudecker,  
 C. Ochsenfeld,  J. A. Parkhill,  R. Peverati,  V. A. Rassolov,  Yihan Shao,  
 L. V. Slipchenko,  R. P. Steele,  J. E. Subotnik,  A. J. W. Thom,  
 A. Tkatchenko,  D. G. Truhlar,  T. Van Voorhis,  T. A. Wesolowski,  
 K. B. Whaley,  H. L. Woodcock III,  P. M. Zimmerman,  S. Faraji,  
 P. M. W. Gill,  M. Head-Gordon,  J. M. Herbert,  A. I. Krylov

 Additional authors since Version 5.4.0: 
 Chandrima Chakravarty,  L. Cunha,  R. Kang,  Yongbin Kim,  S. Kotaru,  
 Shaozhi Li,  Xiangyuan Li,  F. Matz,  A. Molle,  V. Parravicini,  
 Haisheng Ren,  Hengyuan Shen,  Yingli Su,  Hung-Yi Tsai,  C. Utku,  
 Fang Wang,  Jeff Yang,  F. Zeller

 Contributors to earlier versions of Q-Chem not listed above: 
 R. D. Adamson,  B. Austin,  R. Baer,  J. Baker,  G. J. O. Beran,  
 K. Brandhorst,  S. T. Brown,  E. F. C. Byrd,  Arup K. Chakraborty,  
 G. K. L. Chan,  Chun-Min Chang,  Yunqing Chen,  C.-L. Cheng,  
 Siu Hung Chien,  D. M. Chipman,  D. L. Crittenden,  H. Dachsel,  
 R. J. Doerksen,  A. D. Dutoi,  R. G. Edgar,  J. Fosso-Tande,  
 L. Fusti-Molnar,  D. Ghosh,  A. Ghysels,  A. Golubeva-Zadorozhnaya,  
 J. Gonthier,  M. S. Gordon,  S. R. Gwaltney,  G. Hawkins,  J. E. Herr,  
 A. Heyden,  S. Hirata,  E. G. Hohenstein,  G. Kedziora,  F. J. Keil,  
 C. Kelley,  Jihan Kim,  R. A. King,  R. Z. Khaliullin,  P. P. Korambath,  
 W. Kurlancheek,  A. Laurent,  A. M. Lee,  M. S. Lee,  S. V. Levchenko,  
 Ching Yeh Lin,  D. Liotard,  E. Livshits,  R. C. Lochan,  I. Lotan,  
 L. A. Martinez-Martinez,  P. E. Maslen,  N. Nair,  D. P. O'Neill,  
 D. Neuhauser,  E. Neuscamman,  C. M. Oana,  R. Olivares-Amaya,  R. Olson,  
 T. M. Perrine,  B. Peters,  P. A. Pieniazek,  A. Prociuk,  Y. M. Rhee,  
 J. Ritchie,  M. A. Rohrdanz,  E. Rosta,  N. J. Russ,  H. F. Schaefer III,  
 M. W. Schmidt,  N. E. Schultz,  S. Sharma,  N. Shenvi,  C. D. Sherrill,  
 A. C. Simmonett,  A. Sodt,  T. Stein,  D. Stuck,  K. S. Thanthiriwatte,  
 V. Vanovschi,  L. Vogt,  Tao Wang,  A. Warshel,  M. A. Watson,  
 C. F. Williams,  Q. Wu,  X. Xu,  Jun Yang,  W. Zhang,  Yan Zhao

   Please cite Q-Chem as follows:
  "Software for the frontiers of quantum chemistry:
   An overview of developments in the Q-Chem 5 package"
   J. Chem. Phys. 155, 084801 (2021)
   https://doi.org/10.1063/5.0055522 (open access)

 Q-Chem 5.4.2 for Intel X86 EM64T Linux

 Parts of Q-Chem use Armadillo 9.900.5 (Nocturnal Misbehaviour).
 http://arma.sourceforge.net/

 Q-Chem begins on Fri Feb 28 15:09:31 2025  

 Host: 
0

     Scratch files written to /scratch/qchem134885//
 Dec1321 |scratch|qcdevops|jenkins|workspace|build_RNUM 5684   
 Processing $rem in /home/kchung25/qchem/5.4.0/config/preferences:
 Processing $rem in /home/kchung25/.qchemrc:

 Q-Chem warning in module libgen/rem_setup.C, line 3079:

 Neither GIA nor STOLL is specified by user. Use STOLL as the default


 Checking the input file for inconsistencies... 	...done.

--------------------------------------------------------------
User input:
--------------------------------------------------------------
$molecule
0 1
--
0 1
C    1.482875   0.599326   1.057575
C    1.592743  -0.337024  -0.117878
O    2.745067  -0.104602  -0.897001
H    3.510171  -0.141707  -0.317682
H    0.553069   0.421665   1.601202
H    1.501320   1.639267   0.722795
H    2.316519   0.455528   1.752186
H    0.740222  -0.202261  -0.789559
H    1.552188  -1.380872   0.226783
--
0 1
C   -2.064222   1.139739  -0.315893
C   -2.183250  -0.350811  -0.463909
O   -1.554399  -0.950237   0.649269
H   -1.620092  -1.903905   0.571784
H   -2.557850   1.653322  -1.142146
H   -1.014800   1.441947  -0.301056
H   -2.522953   1.466473   0.619203
H   -1.710337  -0.675620  -1.402614
H   -3.241673  -0.642500  -0.518410
$end

$rem
JOBTYPE          eda
EDA2             1
METHOD           wB97M-V
BASIS            def2-TZVPPD
SYMMETRY         false
MEM_TOTAL        50000
MEM_STATIC       10000
THRESH           14
SCF_CONVERGENCE  8
XC_GRID          000099000590
NL_GRID          1
EDA_CLS_DISP     true
FD_MAT_VEC_PROD  FALSE
$end
--------------------------------------------------------------
 ----------------------------------------------------------------
             Standard Nuclear Orientation (Angstroms)
    I     Atom           X                Y                Z
 ----------------------------------------------------------------
    1      C      -1.4828749571    -0.5993269241     1.0575743742
    2      C      -1.5927429123     0.3370242551    -0.1178776907
    3      O      -2.7450669046     0.1046030645    -0.8970009436
    4      H      -3.5101709138     0.1417075044    -0.3176819199
    5      H      -0.5530689621    -0.4216664920     1.6012015683
    6      H      -1.5013199780    -1.6392675886     0.7227933331
    7      H      -2.3165189656    -0.4555295977     1.7521855034
    8      H      -0.7402219040     0.2022619054    -0.7895588106
    9      H      -1.5521878915     1.3808719091     0.2267843546
   10      C       2.0642220531    -1.1397386408    -0.3158941043
   11      C       2.1832500941     0.3508115042    -0.4639086106
   12      O       1.5543990900     0.9502364064     0.6492699783
   13      H       1.6200921159     1.9039044822     0.5717859338
   14      H       2.5578500544    -1.6533208267    -1.1421476096
   15      H       1.0148000451    -1.4419466287    -0.3010574252
   16      H       2.5229530283    -1.4664735884     0.6192015768
   17      H       1.7103371190     0.6756214558    -1.4026132938
   18      H       3.2416731026     0.6425005315    -0.5184093000
 ----------------------------------------------------------------
 Molecular Point Group                 C1    NOp =  1
 Largest Abelian Subgroup              C1    NOp =  1
 Nuclear Repulsion Energy =         252.25717512 hartrees
 There are       26 alpha and       26 beta electrons
 Requested basis set is def2-TZVPPD
 There are 164 shells and 432 basis functions

 Q-Chem warning in module libmdc/get_mega.C, line 171:

 Allowed MEM_STATIC has been capped at MEM_STATIC=8191.
 Reduce the value of MEM_STATIC to silence this warning.


 Total QAlloc Memory Limit  50000 MB
 Mega-Array Size      8007 MB
 MEM_STATIC part      8191 MB
 A cutoff of  1.0D-14 yielded  12480 shell pairs
 There are     86144 function pairs (    105952 Cartesian)
 Smallest overlap matrix eigenvalue = 5.68E-06

 Scale SEOQF with 1.000000e-01/1.000000e-01/1.000000e-01

 Standard Electronic Orientation quadrupole field applied
 Nucleus-field energy     =     0.0000000070 hartrees

 -----------------------------------------------------------------------
  General SCF calculation program by
  Eric Jon Sundstrom, Paul Horn, Yuezhi Mao, Dmitri Zuev, Alec White,
  David Stuck, Shaama M.S., Shane Yost, Joonho Lee, David Small,
  Daniel Levine, Susi Lehtola, Hugh Burton, Evgeny Epifanovsky,
  Bang C. Huynh
 -----------------------------------------------------------------------
================================================================
                 ALMO-EDA with the EDA2 driver                  
================================================================
 The second-generation ALMO-EDA (for DFT):                      
 P. R. Horn, Y. Mao and M. Head-Gordon, PCCP, 18, 23067 (2016)  
 Y. Mao et al. Annu. Rev. Phys. Chem. 72, 641 (2021)            
 Decomposition of the frozen energy:                            
 P. R. Horn, Y. Mao and M. Head-Gordon, JCP, 144, 114107 (2016) 
 FERF model for polarization:                                   
 P. R. Horn and M. Head-Gordon, JCP, 143, 114111 (2015)         
================================================================
 Using eda2 option set 1
 Option set summary: Frozen orbital wavefunction, initial wavefunction decomposition, and nDQ polarization.
--------------------------------
Printing EDA Options
--------------------------------
eda_child_super_basis      0
fragmo_guess_mode          0
child_mp                   1
child_mp_orders            232
cls_elec                   1
cls_disp                   1
scfmi_mode                 1
scfmi_occs                 0
scfmi_virts                0
frz_relax                  0
frz_relax_method           0
dc_pen_start               0
dc_pen_conv                0
dc_pen_increment           0
dc_pen_steps               0
dc_pen_thresh_factor       0
dc_pen_pre_newton_thresh   0
frz_ortho_decomp           1
frz_ortho_decomp_conv      6
plot_mo_ortho_frz          0
frgm_method                2
scfmi_freeze_ss            0
separate_rehyb             0
plot_diff_den              0
eda_nocv                   0
eda_vct_relax              1
disp_free_x                0
disp_free_c                0
eda_bsse                   0
eda_pct_a                  0
eda_covp                   0
--------------------------------
Attempting to make child job directory: /scratch/qchem134885//Frg1/
Attempting to make child job directory: /scratch/qchem134885//Frg2/
Creating input file /scratch/qchem134885/Frg1.input
using default PutDataFrgm: nothing
calling putenv with: QCSCRATCH=/scratch/qchem134885/ 
Spawning Job For Fragment 0
Done Job For Fragment 0
calling putenv with: QCSCRATCH=/scratch 
calling putenv with: QCTHREADS=6 
Creating input file /scratch/qchem134885/Frg2.input
using default PutDataFrgm: nothing
calling putenv with: QCSCRATCH=/scratch/qchem134885/ 
Spawning Job For Fragment 1
Done Job For Fragment 1
calling putenv with: QCSCRATCH=/scratch 
calling putenv with: QCTHREADS=6 
Doing General SCFMI
 Exchange:     0.1500 Hartree-Fock + 1.0000 wB97M-V + LR-HF
 Correlation:  1.0000 wB97M-V
 Using Euler-Maclaurin-Lebedev (99,590) quadrature formula
 Nonlocal Correlation:  VV10 with C = 0.0100 and b = 6.00 and scale = 1.00000
 Grid used for NLC:  SG-1 standard quadrature
performing fock build before subrot guess so that all methods have access
Printing subrot_rss_gen Method Specification:
Occupied Subspace Method is 0
Virtual Subspace Method is 0
Energy of the unrelaxed supersystem initial determinant -310.061170731045
write pseudocanon occs and virts to disk
write pseudocanon orbital energies to disk
Tolerance of ortho_decomp_scf: 1.00e-06
GDM subspace size: 20
Beginning the Orthogonal Decomposition of the Initial Supersystem Wavefunction
    1    -310.0379535711      5.70e-02     ortho_decomp Preconditoned Steepest Descent
    2    -310.0417540866      1.81e-03     ortho_decomp BFGS Step
    3    -310.0417721304      1.23e-04     ortho_decomp BFGS Step
    4    -310.0417721477      4.67e-06     ortho_decomp BFGS Step
    5    -310.0417721477      2.02e-07     ortho_decomp 00000 Convergence criterion met
 Hartree-Fock
 Hartree-Fock
 Hartree-Fock
 Exchange:     0.1500 Hartree-Fock + 1.0000 wB97M-V + LR-HF
 Correlation:  1.0000 wB97M-V
 Using Euler-Maclaurin-Lebedev (99,590) quadrature formula
 Nonlocal Correlation:  VV10 with C = 0.0100 and b = 6.00 and scale = 1.00000
 Grid used for NLC:  SG-1 standard quadrature
 Long-range K will be added via erf
 Coulomb attenuation parameter = 0.3 bohr**(-1)
 Nonlocal correlation = 2.041188295296e-01
Doing General SCFMI
 Exchange:     0.1500 Hartree-Fock + 1.0000 wB97M-V + LR-HF
 Correlation:  1.0000 wB97M-V
 Using Euler-Maclaurin-Lebedev (99,590) quadrature formula
 Nonlocal Correlation:  VV10 with C = 0.0100 and b = 6.00 and scale = 1.00000
 Grid used for NLC:  SG-1 standard quadrature
performing fock build at end of subrot_r(subrot) constructor so that all methods have access
<S^2> of initial wavefunction before polarization iterations 0.0000000000
Beginning iterations for the determination of the polarized wavefunction
Energy prior to optimization (guess energy) = -310.061170731045
Begin Timing: Total SCF Calculation
begin iterations for algorithm: DIIS         
the SCF tolerance is set to 1.00e-08
    1    -310.0611707310      1.37e-04     00000 
    2    -310.0616932277      5.74e-05     00000 
    3    -310.0617385130      3.34e-05     00000 
    4    -310.0617533546      1.01e-05     00000 
    5    -310.0617551699      3.40e-06     00000 
    6    -310.0617555324      1.66e-06     00000 
    7    -310.0617556146      6.29e-07     00000 
    8    -310.0617556256      2.79e-07     00000 
    9    -310.0617556265      1.38e-07     00000 
   10    -310.0617556267      4.38e-08     00000 
   11    -310.0617556268      1.87e-08     00000 
   12    -310.0617556268      7.59e-09     00000 Convergence criterion met
write pseudocanon occs and virts to disk
write pseudocanon orbital energies to disk
Timing for Total SCF: 290.00s (wall), 1740.12s (cpu)
<S^2> of polarized wavefunction after polarization iterations 0.0000000000
relaxing scfmi constraint to allow all rotations in the entire AO span
Doing General SCFMI
 Exchange:     0.1500 Hartree-Fock + 1.0000 wB97M-V + LR-HF
 Correlation:  1.0000 wB97M-V
 Using Euler-Maclaurin-Lebedev (99,590) quadrature formula
 Nonlocal Correlation:  VV10 with C = 0.0100 and b = 6.00 and scale = 1.00000
 Grid used for NLC:  SG-1 standard quadrature
performing fock build at end of subrot_r(subrot) constructor so that all methods have access
<S^2> of polarized wavefunction before ct-allowed iterations 0.0000000000
Beginning iterations for the determination of the CT-Allowed wavefunction
Energy prior to optimization (guess energy) = -310.061755626768
Begin Timing: Total SCF Calculation
begin iterations for algorithm: DIIS         
the SCF tolerance is set to 1.00e-08
    1    -310.0617556268      8.66e-05     00000 
    2    -310.0624784463      9.49e-06     00000 
    3    -310.0624981028      2.22e-06     00000 
    4    -310.0624985866      1.77e-06     00000 
    5    -310.0624987969      2.62e-07     00000 
    6    -310.0624988031      8.81e-08     00000 
    7    -310.0624988040      2.15e-08     00000 
    8    -310.0624988040      4.73e-09     00000 Convergence criterion met
write pseudocanon occs and virts to disk
write pseudocanon orbital energies to disk
Timing for Total SCF: 185.00s (wall), 1114.22s (cpu)
<S^2> of ct_allowed wavefunction after ct-allowed iterations 0.0000000000

================================
        Results of EDA2         
================================
Basic EDA Quantities
--------------------
Fragment Energies (Ha):
1 -155.0293647814
2 -155.0296175048
--------------------
  E_prp (kJ/mol) = -0.0000
  E_frz (kJ/mol) = -5.7458
  E_pol (kJ/mol) = -1.5357
  E_vct (kJ/mol) = -1.9512
  E_int (kJ/mol) = -9.2327
--------------------


Decomposition of frozen interaction energy
--------------------
  --------------------
  Orthogonal Frozen Decomposition:
  --------------------
     E_elec   (ELEC)   (kJ/mol) = -25.3457
     E_pauli  (PAULI)  (kJ/mol) = 34.6053
     E_disp   (DISP)   (kJ/mol) = -15.0054
  --------------------
  Classical Frozen Decomposition:
  --------------------
     E_cls_elec  (CLS ELEC)  (kJ/mol) = -10.2621
     E_mod_pauli (MOD PAULI) (kJ/mol) = 17.5582 (FRZ - CLS ELEC - CLS DISP)
     E_cls_disp  (CLS DISP)  (kJ/mol) = -13.0419
  --------------------
--------------------

Simplified EDA Summary (kJ/mol)
--------------------
 PREPARATION      -0.0000
 FROZEN           -5.7458 (ELEC + PAULI + DISP)
[ELEC + PAULI = 7.2961, DISP = -13.0419]
 POLARIZATION    -1.5357
 CHARGE TRANSFER -1.9512
 TOTAL           -9.2327     (PRP + FRZ + POL + CT)
--------------------
 
 --------------------------------------------------------------
 
                    Orbital Energies (a.u.)
 --------------------------------------------------------------
 
 Alpha MOs
 -- Occupied --
-19.3373 -19.3240 -10.3909 -10.3774 -10.3309 -10.3224  -1.1587  -1.1458
 -0.8777  -0.8625  -0.7339  -0.7306  -0.6374  -0.6052  -0.5852  -0.5522
 -0.5376  -0.5172  -0.4876  -0.4762  -0.4709  -0.4639  -0.4409  -0.4197
 -0.3847  -0.3726
 -- Virtual --
  0.0304   0.0444   0.0537   0.0607   0.0758   0.0819   0.0888   0.0946
  0.1127   0.1155   0.1282   0.1354   0.1416   0.1595   0.1642   0.1700
  0.1754   0.1759   0.1858   0.1968   0.2032   0.2088   0.2223   0.2278
  0.2342   0.2389   0.2499   0.2595   0.2664   0.2713   0.2733   0.2848
  0.2908   0.2942   0.2981   0.3027   0.3076   0.3156   0.3192   0.3218
  0.3260   0.3384   0.3409   0.3430   0.3471   0.3533   0.3598   0.3689
  0.3701   0.3759   0.3797   0.3856   0.3862   0.3916   0.4048   0.4085
  0.4147   0.4173   0.4246   0.4271   0.4375   0.4440   0.4508   0.4545
  0.4637   0.4722   0.4752   0.4804   0.4842   0.4956   0.4988   0.5065
  0.5123   0.5267   0.5289   0.5399   0.5424   0.5480   0.5559   0.5626
  0.5745   0.5842   0.5938   0.5977   0.6135   0.6228   0.6302   0.6352
  0.6356   0.6491   0.6690   0.6745   0.6771   0.6934   0.6979   0.7036
  0.7114   0.7248   0.7354   0.7399   0.7506   0.7556   0.7636   0.7684
  0.7751   0.7822   0.7968   0.8004   0.8042   0.8111   0.8156   0.8289
  0.8382   0.8471   0.8596   0.8675   0.8919   0.9237   0.9407   0.9523
  0.9581   0.9726   0.9830   0.9896   1.0048   1.0163   1.0319   1.0380
  1.0508   1.0741   1.0787   1.0938   1.1121   1.1239   1.1306   1.1592
  1.1760   1.1924   1.2057   1.2231   1.2294   1.2454   1.2547   1.2647
  1.2730   1.2843   1.2987   1.3101   1.3185   1.3303   1.3389   1.3509
  1.3633   1.3794   1.3858   1.3935   1.4061   1.4257   1.4369   1.4472
  1.4588   1.4647   1.4901   1.5005   1.5068   1.5328   1.5619   1.5736
  1.5953   1.6190   1.6435   1.6574   1.6615   1.6727   1.6878   1.6904
  1.6988   1.7150   1.7217   1.7382   1.7548   1.7702   1.8127   1.8145
  1.8395   1.8656   1.9544   1.9742   1.9941   2.0121   2.0233   2.0563
  2.0696   2.0946   2.1251   2.1397   2.1730   2.1924   2.2226   2.2662
  2.2715   2.2906   2.3438   2.3711   2.3980   2.4118   2.4329   2.4712
  2.5273   2.5337   2.6931   2.7011   2.7332   2.7661   2.7895   2.8007
  2.8320   2.8643   2.8752   2.8972   2.9083   2.9334   2.9362   2.9389
  2.9533   2.9678   2.9845   2.9946   3.0119   3.0196   3.0352   3.0609
  3.0723   3.0862   3.0937   3.1118   3.1266   3.1474   3.1728   3.1751
  3.1890   3.2179   3.2325   3.2432   3.2478   3.2584   3.2779   3.2900
  3.2985   3.3145   3.3199   3.3301   3.3427   3.3522   3.3719   3.4089
  3.4272   3.4454   3.4680   3.4881   3.5164   3.5184   3.5412   3.5507
  3.5824   3.5904   3.5994   3.6143   3.6285   3.6398   3.6518   3.6765
  3.6973   3.7048   3.7558   3.7621   3.7693   3.7845   3.7999   3.8081
  3.8275   3.8513   3.8720   3.9150   3.9203   3.9247   3.9999   4.0127
  4.0193   4.0297   4.0378   4.0500   4.0615   4.0769   4.0977   4.1114
  4.1190   4.1410   4.1462   4.1533   4.1772   4.1817   4.2153   4.2196
  4.2442   4.2498   4.2602   4.2763   4.2924   4.2934   4.3095   4.3240
  4.3340   4.3723   4.3881   4.4014   4.4312   4.4514   4.4594   4.4779
  4.4883   4.5062   4.5156   4.5399   4.5580   4.5831   4.6087   4.6261
  4.6566   4.6812   4.6863   4.7043   4.7227   4.7620   4.8136   4.8236
  4.8454   4.8643   4.9344   4.9525   4.9595   4.9643   4.9895   5.0102
  5.0176   5.0260   5.0850   5.1030   5.1212   5.1618   5.2317   5.2634
  5.3073   5.3158   5.3226   5.3538   5.4096   5.4237   5.4284   5.4310
  5.4445   5.4505   5.4625   5.4933   5.5165   5.5328   5.5701   5.5984
  5.6372   5.6537   5.6697   5.7004   5.7456   5.7521   5.7662   5.8040
  5.8239   5.8431   5.9112   5.9612   6.1120   6.1250   6.2583   6.3044
  6.6646   6.6830   6.8251   6.8374   6.8765   6.9027   6.9566   6.9898
  7.0682   7.0875   7.3624   7.3818   7.5627   7.5661   7.7858   7.7988
 23.7664  23.7898  24.0704  24.1146  44.8183  44.8526
 --------------------------------------------------------------
 
          Ground-State Mulliken Net Atomic Charges

     Atom                 Charge (a.u.)
  ----------------------------------------
      1 C                    -1.042116
      2 C                     0.201773
      3 O                    -0.426231
      4 H                     0.136368
      5 H                     0.241887
      6 H                     0.282236
      7 H                     0.358124
      8 H                    -0.000322
      9 H                     0.232382
     10 C                    -0.833814
     11 C                    -0.353726
     12 O                    -0.347113
     13 H                     0.118582
     14 H                     0.326854
     15 H                     0.147270
     16 H                     0.262388
     17 H                     0.313132
     18 H                     0.382326
  ----------------------------------------
  Sum of atomic charges =     0.000000

 -----------------------------------------------------------------
                    Cartesian Multipole Moments
 -----------------------------------------------------------------
    Charge (ESU x 10^10)
                -0.0000
    Dipole Moment (Debye)
         X       1.1131      Y       1.0022      Z       0.5960
       Tot       1.6120
    Quadrupole Moments (Debye-Ang)
        XX     -36.7849     XY       0.8818     YY     -37.2874
        XZ      -6.9448     YZ       0.2924     ZZ     -44.1842
    Octopole Moments (Debye-Ang^2)
       XXX     -14.9617    XXY       6.4241    XYY       6.5625
       YYY      16.0658    XXZ      10.7835    XYZ      -0.7674
       YYZ       1.8774    XZZ       4.6127    YZZ       1.0585
       ZZZ       0.1867
    Hexadecapole Moments (Debye-Ang^3)
      XXXX    -918.4101   XXXY       3.3666   XXYY    -200.5110
      XYYY      23.0776   YYYY    -184.3794   XXXZ     -30.5842
      XXYZ       3.6488   XYYZ       5.5855   YYYZ      10.3593
      XXZZ    -225.0095   XYZZ      -0.7412   YYZZ     -65.4935
      XZZZ       1.4295   YZZZ       3.5688   ZZZZ    -190.5424
 -----------------------------------------------------------------
 Total job time:  1507.80s(wall), 5541.16s(cpu) 
 Fri Feb 28 15:34:39 2025

        *************************************************************
        *                                                           *
        *  Thank you very much for using Q-Chem.  Have a nice day.  *
        *                                                           *
        *************************************************************


