
Running Job 1 of 1 004_ethanol_dimer_19_almo.inp
qchem 004_ethanol_dimer_19_almo.inp_113186.0 /scratch/qchem113186/ 6
/home/kchung25/qchem/5.4.0/exe/qcprog.exe_s 004_ethanol_dimer_19_almo.inp_113186.0 /scratch/qchem113186/
                  Welcome to Q-Chem
     A Quantum Leap Into The Future Of Chemistry


 Q-Chem 5.4, Q-Chem, Inc., Pleasanton, CA (2021)

 E. Epifanovsky,  A. T. B. Gilbert,  Xintian Feng,  Joonho Lee,  Yuezhi Mao,  
 N. Mardirossian,  P. Pokhilko,  A. White,  M. Wormit,  M. P. Coons,  
 A. L. Dempwolff,  Zhengting Gan,  D. Hait,  P. R. Horn,  L. D. Jacobson,  
 I. Kaliman,  J. Kussmann,  A. W. Lange,  Ka Un Lao,  D. S. Levine,  Jie Liu,  
 S. C. McKenzie,  A. F. Morrison,  K. Nanda,  F. Plasser,  D. R. Rehn,  
 M. L. Vidal,  Zhi-Qiang You,  Ying Zhu,  B. Alam,  B. Albrecht,  
 A. Aldossary,  E. Alguire,  J. H. Andersen,  D. Barton,  K. Begam,  A. Behn,  
 Y. A. Bernard,  E. J. Berquist,  H. Burton,  A. Carreras,  K. Carter-Fenk,  
 Romit Chakraborty,  A. D. Chien,  K. D. Closser,  V. Cofer-Shabica,  
 S. Dasgupta,  Jia Deng,  M. de Wergifosse,  M. Diedenhofen,  Hainam Do,  
 S. Ehlert,  Po-Tung Fang,  S. Fatehi,  Qingguo Feng,  T. Friedhoff,  
 J. Gayvert,  Qinghui Ge,  G. Gidofalvi,  M. Goldey,  J. Gomes,  
 C. Gonzalez-Espinoza,  S. Gulania,  A. Gunina,  M. W. D. Hanson-Heine,  
 P. H. P. Harbach,  A. W. Hauser,  M. F. Herbst,  M. Hernandez Vera,  
 M. Hodecker,  Z. C. Holden,  S. Houck,  Xunkun Huang,  Kerwin Hui,  
 B. C. Huynh,  M. Ivanov,  Hyunjun Ji,  Hanjie Jiang,  B. Kaduk,  S. Kaehler,  
 K. Khistyaev,  Jaehoon Kim,  P. Klunzinger,  Z. Koczor-Benda,  
 Joong Hoon Koh,  D. Kosenkov,  L. Koulias,  T. Kowalczyk,  C. M. Krauter,  
 K. Kue,  A. Kunitsa,  T. Kus,  A. Landau,  K. V. Lawler,  D. Lefrancois,  
 S. Lehtola,  Rain Li,  Yi-Pei Li,  Jiashu Liang,  M. Liebenthal,  
 Hung-Hsuan Lin,  You-Sheng Lin,  Fenglai Liu,  Kuan-Yu Liu,  
 M. Loipersberger,  A. Luenser,  A. Manjanath,  P. Manohar,  E. Mansoor,  
 S. F. Manzer,  Shan-Ping Mao,  A. V. Marenich,  T. Markovich,  S. Mason,  
 S. A. Maurer,  P. F. McLaughlin,  M. F. S. J. Menger,  J.-M. Mewes,  
 S. A. Mewes,  P. Morgante,  J. W. Mullinax,  K. J. Oosterbaan,  G. Paran,  
 Alexander C. Paul,  Suranjan K. Paul,  F. Pavosevic,  Zheng Pei,  S. Prager,  
 E. I. Proynov,  E. Ramos,  B. Rana,  A. E. Rask,  A. Rettig,  R. M. Richard,  
 F. Rob,  E. Rossomme,  T. Scheele,  M. Scheurer,  M. Schneider,  
 N. Sergueev,  S. M. Sharada,  W. Skomorowski,  D. W. Small,  C. J. Stein,  
 Yu-Chuan Su,  E. J. Sundstrom,  Zhen Tao,  J. Thirman,  T. Tsuchimochi,  
 N. M. Tubman,  S. P. Veccham,  O. Vydrov,  J. Wenzel,  J. Witte,  A. Yamada,  
 Kun Yao,  S. Yeganeh,  S. R. Yost,  A. Zech,  Igor Ying Zhang,  Xing Zhang,  
 Yu Zhang,  D. Zuev,  A. Aspuru-Guzik,  A. T. Bell,  N. A. Besley,  
 K. B. Bravaya,  B. R. Brooks,  D. Casanova,  Jeng-Da Chai,  S. Coriani,  
 C. J. Cramer,  A. E. DePrince, III,  R. A. DiStasio Jr.,  A. Dreuw,  
 B. D. Dunietz,  T. R. Furlani,  W. A. Goddard III,  S. Grimme,  
 S. Hammes-Schiffer,  T. Head-Gordon,  W. J. Hehre,  Chao-Ping Hsu,  
 T.-C. Jagau,  Yousung Jung,  A. Klamt,  Jing Kong,  D. S. Lambrecht,  
 WanZhen Liang,  N. J. Mayhall,  C. W. McCurdy,  J. B. Neaton,  T. Neudecker,  
 C. Ochsenfeld,  J. A. Parkhill,  R. Peverati,  V. A. Rassolov,  Yihan Shao,  
 L. V. Slipchenko,  R. P. Steele,  J. E. Subotnik,  A. J. W. Thom,  
 A. Tkatchenko,  D. G. Truhlar,  T. Van Voorhis,  T. A. Wesolowski,  
 K. B. Whaley,  H. L. Woodcock III,  P. M. Zimmerman,  S. Faraji,  
 P. M. W. Gill,  M. Head-Gordon,  J. M. Herbert,  A. I. Krylov

 Additional authors since Version 5.4.0: 
 Chandrima Chakravarty,  L. Cunha,  R. Kang,  Yongbin Kim,  S. Kotaru,  
 Shaozhi Li,  Xiangyuan Li,  F. Matz,  A. Molle,  V. Parravicini,  
 Haisheng Ren,  Hengyuan Shen,  Yingli Su,  Hung-Yi Tsai,  C. Utku,  
 Fang Wang,  Jeff Yang,  F. Zeller

 Contributors to earlier versions of Q-Chem not listed above: 
 R. D. Adamson,  B. Austin,  R. Baer,  J. Baker,  G. J. O. Beran,  
 K. Brandhorst,  S. T. Brown,  E. F. C. Byrd,  Arup K. Chakraborty,  
 G. K. L. Chan,  Chun-Min Chang,  Yunqing Chen,  C.-L. Cheng,  
 Siu Hung Chien,  D. M. Chipman,  D. L. Crittenden,  H. Dachsel,  
 R. J. Doerksen,  A. D. Dutoi,  R. G. Edgar,  J. Fosso-Tande,  
 L. Fusti-Molnar,  D. Ghosh,  A. Ghysels,  A. Golubeva-Zadorozhnaya,  
 J. Gonthier,  M. S. Gordon,  S. R. Gwaltney,  G. Hawkins,  J. E. Herr,  
 A. Heyden,  S. Hirata,  E. G. Hohenstein,  G. Kedziora,  F. J. Keil,  
 C. Kelley,  Jihan Kim,  R. A. King,  R. Z. Khaliullin,  P. P. Korambath,  
 W. Kurlancheek,  A. Laurent,  A. M. Lee,  M. S. Lee,  S. V. Levchenko,  
 Ching Yeh Lin,  D. Liotard,  E. Livshits,  R. C. Lochan,  I. Lotan,  
 L. A. Martinez-Martinez,  P. E. Maslen,  N. Nair,  D. P. O'Neill,  
 D. Neuhauser,  E. Neuscamman,  C. M. Oana,  R. Olivares-Amaya,  R. Olson,  
 T. M. Perrine,  B. Peters,  P. A. Pieniazek,  A. Prociuk,  Y. M. Rhee,  
 J. Ritchie,  M. A. Rohrdanz,  E. Rosta,  N. J. Russ,  H. F. Schaefer III,  
 M. W. Schmidt,  N. E. Schultz,  S. Sharma,  N. Shenvi,  C. D. Sherrill,  
 A. C. Simmonett,  A. Sodt,  T. Stein,  D. Stuck,  K. S. Thanthiriwatte,  
 V. Vanovschi,  L. Vogt,  Tao Wang,  A. Warshel,  M. A. Watson,  
 C. F. Williams,  Q. Wu,  X. Xu,  Jun Yang,  W. Zhang,  Yan Zhao

   Please cite Q-Chem as follows:
  "Software for the frontiers of quantum chemistry:
   An overview of developments in the Q-Chem 5 package"
   J. Chem. Phys. 155, 084801 (2021)
   https://doi.org/10.1063/5.0055522 (open access)

 Q-Chem 5.4.2 for Intel X86 EM64T Linux

 Parts of Q-Chem use Armadillo 9.900.5 (Nocturnal Misbehaviour).
 http://arma.sourceforge.net/

 Q-Chem begins on Fri Feb 28 07:23:50 2025  

 Host: 
0

     Scratch files written to /scratch/qchem113186//
 Dec1321 |scratch|qcdevops|jenkins|workspace|build_RNUM 5684   
 Processing $rem in /home/kchung25/qchem/5.4.0/config/preferences:
 Processing $rem in /home/kchung25/.qchemrc:

 Q-Chem warning in module libgen/rem_setup.C, line 3079:

 Neither GIA nor STOLL is specified by user. Use STOLL as the default


 Checking the input file for inconsistencies... 	...done.

--------------------------------------------------------------
User input:
--------------------------------------------------------------
$molecule
0 1
--
0 1
C    3.029986   0.386750  -0.297289
C    1.565630   0.042439  -0.343416
O    1.054760  -0.298721   0.935189
H    1.600391  -0.997930   1.306596
H    3.392495   0.683308  -1.283110
H    3.623536  -0.473268   0.026689
H    3.211994   1.206803   0.399565
H    1.373321  -0.767819  -1.059610
H    0.975226   0.901777  -0.673560
--
0 1
C   -2.339283   1.016978   0.390899
C   -2.013114  -0.031171  -0.645695
O   -1.483940  -1.201848  -0.081782
H   -0.699556  -0.953916   0.431255
H   -2.777295   1.906617  -0.067586
H   -1.436124   1.322929   0.927170
H   -3.045323   0.621481   1.123823
H   -1.327143   0.391231  -1.399248
H   -2.917394  -0.326625  -1.186236
$end

$rem
JOBTYPE          eda
EDA2             1
METHOD           wB97M-V
BASIS            def2-TZVPPD
SYMMETRY         false
MEM_TOTAL        50000
MEM_STATIC       10000
THRESH           14
SCF_CONVERGENCE  8
XC_GRID          000099000590
NL_GRID          1
EDA_CLS_DISP     true
FD_MAT_VEC_PROD  FALSE
$end
--------------------------------------------------------------
 ----------------------------------------------------------------
             Standard Nuclear Orientation (Angstroms)
    I     Atom           X                Y                Z
 ----------------------------------------------------------------
    1      C      -3.0299859584    -0.3867497479    -0.2972890217
    2      C      -1.5656299708    -0.0424386825    -0.3434159299
    3      O      -1.0547599421     0.2987208241     0.9351891903
    4      H      -1.6003909530     0.9979296585     1.3065964860
    5      H      -3.3924949794    -0.6833073665    -1.2831101287
    6      H      -3.6235359759     0.4732681039     0.0266893396
    7      H      -3.2119939104    -1.2068030315     0.3995646570
    8      H      -1.3733210190     0.7678196092    -1.0596096128
    9      H      -0.9752259535    -0.9017765320    -0.6735602908
   10      C       2.3392830832    -1.0169778500     0.3908985604
   11      C       2.0131140174     0.0311715528    -0.6456950116
   12      O       1.4839399974     1.2018483110    -0.0817815284
   13      H       0.6995560212     0.9539160813     0.4312553971
   14      H       2.7772950975    -1.9066166532    -0.0675868078
   15      H       1.4361241097    -1.3229290928     0.9271694665
   16      H       3.0453230933    -0.6214811196     1.1238226962
   17      H       1.3271430076    -0.3912301688    -1.3992481587
   18      H       2.9173939912     0.3266257973    -1.1862359218
 ----------------------------------------------------------------
 Molecular Point Group                 C1    NOp =  1
 Largest Abelian Subgroup              C1    NOp =  1
 Nuclear Repulsion Energy =         256.10228526 hartrees
 There are       26 alpha and       26 beta electrons
 Requested basis set is def2-TZVPPD
 There are 164 shells and 432 basis functions

 Q-Chem warning in module libmdc/get_mega.C, line 171:

 Allowed MEM_STATIC has been capped at MEM_STATIC=8191.
 Reduce the value of MEM_STATIC to silence this warning.


 Total QAlloc Memory Limit  50000 MB
 Mega-Array Size      8007 MB
 MEM_STATIC part      8191 MB
 A cutoff of  1.0D-14 yielded  12375 shell pairs
 There are     85247 function pairs (    104862 Cartesian)
 Smallest overlap matrix eigenvalue = 8.37E-06

 Scale SEOQF with 1.000000e-01/1.000000e-01/1.000000e-01

 Standard Electronic Orientation quadrupole field applied
 Nucleus-field energy     =     0.0000000078 hartrees

 -----------------------------------------------------------------------
  General SCF calculation program by
  Eric Jon Sundstrom, Paul Horn, Yuezhi Mao, Dmitri Zuev, Alec White,
  David Stuck, Shaama M.S., Shane Yost, Joonho Lee, David Small,
  Daniel Levine, Susi Lehtola, Hugh Burton, Evgeny Epifanovsky,
  Bang C. Huynh
 -----------------------------------------------------------------------
================================================================
                 ALMO-EDA with the EDA2 driver                  
================================================================
 The second-generation ALMO-EDA (for DFT):                      
 P. R. Horn, Y. Mao and M. Head-Gordon, PCCP, 18, 23067 (2016)  
 Y. Mao et al. Annu. Rev. Phys. Chem. 72, 641 (2021)            
 Decomposition of the frozen energy:                            
 P. R. Horn, Y. Mao and M. Head-Gordon, JCP, 144, 114107 (2016) 
 FERF model for polarization:                                   
 P. R. Horn and M. Head-Gordon, JCP, 143, 114111 (2015)         
================================================================
 Using eda2 option set 1
 Option set summary: Frozen orbital wavefunction, initial wavefunction decomposition, and nDQ polarization.
--------------------------------
Printing EDA Options
--------------------------------
eda_child_super_basis      0
fragmo_guess_mode          0
child_mp                   1
child_mp_orders            232
cls_elec                   1
cls_disp                   1
scfmi_mode                 1
scfmi_occs                 0
scfmi_virts                0
frz_relax                  0
frz_relax_method           0
dc_pen_start               0
dc_pen_conv                0
dc_pen_increment           0
dc_pen_steps               0
dc_pen_thresh_factor       0
dc_pen_pre_newton_thresh   0
frz_ortho_decomp           1
frz_ortho_decomp_conv      6
plot_mo_ortho_frz          0
frgm_method                2
scfmi_freeze_ss            0
separate_rehyb             0
plot_diff_den              0
eda_nocv                   0
eda_vct_relax              1
disp_free_x                0
disp_free_c                0
eda_bsse                   0
eda_pct_a                  0
eda_covp                   0
--------------------------------
Attempting to make child job directory: /scratch/qchem113186//Frg1/
Attempting to make child job directory: /scratch/qchem113186//Frg2/
Creating input file /scratch/qchem113186/Frg1.input
using default PutDataFrgm: nothing
calling putenv with: QCSCRATCH=/scratch/qchem113186/ 
Spawning Job For Fragment 0
Done Job For Fragment 0
calling putenv with: QCSCRATCH=/scratch 
calling putenv with: QCTHREADS=6 
Creating input file /scratch/qchem113186/Frg2.input
using default PutDataFrgm: nothing
calling putenv with: QCSCRATCH=/scratch/qchem113186/ 
Spawning Job For Fragment 1
Done Job For Fragment 1
calling putenv with: QCSCRATCH=/scratch 
calling putenv with: QCTHREADS=6 
Doing General SCFMI
 Exchange:     0.1500 Hartree-Fock + 1.0000 wB97M-V + LR-HF
 Correlation:  1.0000 wB97M-V
 Using Euler-Maclaurin-Lebedev (99,590) quadrature formula
 Nonlocal Correlation:  VV10 with C = 0.0100 and b = 6.00 and scale = 1.00000
 Grid used for NLC:  SG-1 standard quadrature
performing fock build before subrot guess so that all methods have access
Printing subrot_rss_gen Method Specification:
Occupied Subspace Method is 0
Virtual Subspace Method is 0
Energy of the unrelaxed supersystem initial determinant -310.062108491969
write pseudocanon occs and virts to disk
write pseudocanon orbital energies to disk
Tolerance of ortho_decomp_scf: 1.00e-06
GDM subspace size: 20
Beginning the Orthogonal Decomposition of the Initial Supersystem Wavefunction
    1    -310.0122860029      9.02e-02     ortho_decomp Preconditoned Steepest Descent
    2    -310.0181931419      1.95e-03     ortho_decomp BFGS Step
    3    -310.0182099182      1.49e-04     ortho_decomp BFGS Step
    4    -310.0182099412      4.88e-06     ortho_decomp BFGS Step
    5    -310.0182099412      1.35e-07     ortho_decomp 00000 Convergence criterion met
 Hartree-Fock
 Hartree-Fock
 Hartree-Fock
 Exchange:     0.1500 Hartree-Fock + 1.0000 wB97M-V + LR-HF
 Correlation:  1.0000 wB97M-V
 Using Euler-Maclaurin-Lebedev (99,590) quadrature formula
 Nonlocal Correlation:  VV10 with C = 0.0100 and b = 6.00 and scale = 1.00000
 Grid used for NLC:  SG-1 standard quadrature
 Long-range K will be added via erf
 Coulomb attenuation parameter = 0.3 bohr**(-1)
 Nonlocal correlation = 2.039141923311e-01
Doing General SCFMI
 Exchange:     0.1500 Hartree-Fock + 1.0000 wB97M-V + LR-HF
 Correlation:  1.0000 wB97M-V
 Using Euler-Maclaurin-Lebedev (99,590) quadrature formula
 Nonlocal Correlation:  VV10 with C = 0.0100 and b = 6.00 and scale = 1.00000
 Grid used for NLC:  SG-1 standard quadrature
performing fock build at end of subrot_r(subrot) constructor so that all methods have access
<S^2> of initial wavefunction before polarization iterations 0.0000000000
Beginning iterations for the determination of the polarized wavefunction
Energy prior to optimization (guess energy) = -310.062108491969
Begin Timing: Total SCF Calculation
begin iterations for algorithm: DIIS         
the SCF tolerance is set to 1.00e-08
    1    -310.0621084920      2.91e-04     00000 
    2    -310.0644583411      9.35e-05     00000 
    3    -310.0646502662      5.73e-05     00000 
    4    -310.0647003273      2.13e-05     00000 
    5    -310.0647107437      7.40e-06     00000 
    6    -310.0647137463      3.36e-06     00000 
    7    -310.0647143221      1.47e-06     00000 
    8    -310.0647144352      6.08e-07     00000 
    9    -310.0647144432      2.72e-07     00000 
   10    -310.0647144447      8.82e-08     00000 
   11    -310.0647144448      4.16e-08     00000 
   12    -310.0647144449      1.86e-08     00000 
   13    -310.0647144449      8.05e-09     00000 Convergence criterion met
write pseudocanon occs and virts to disk
write pseudocanon orbital energies to disk
Timing for Total SCF: 314.00s (wall), 1886.94s (cpu)
<S^2> of polarized wavefunction after polarization iterations 0.0000000000
relaxing scfmi constraint to allow all rotations in the entire AO span
Doing General SCFMI
 Exchange:     0.1500 Hartree-Fock + 1.0000 wB97M-V + LR-HF
 Correlation:  1.0000 wB97M-V
 Using Euler-Maclaurin-Lebedev (99,590) quadrature formula
 Nonlocal Correlation:  VV10 with C = 0.0100 and b = 6.00 and scale = 1.00000
 Grid used for NLC:  SG-1 standard quadrature
performing fock build at end of subrot_r(subrot) constructor so that all methods have access
<S^2> of polarized wavefunction before ct-allowed iterations 0.0000000000
Beginning iterations for the determination of the CT-Allowed wavefunction
Energy prior to optimization (guess energy) = -310.064714444866
Begin Timing: Total SCF Calculation
begin iterations for algorithm: DIIS         
the SCF tolerance is set to 1.00e-08
    1    -310.0647144449      1.73e-04     00000 
    2    -310.0679289723      2.57e-05     00000 
    3    -310.0680422878      1.10e-05     00000 
    4    -310.0680498302      5.29e-06     00000 
    5    -310.0680520270      5.17e-07     00000 
    6    -310.0680520736      2.72e-07     00000 
    7    -310.0680520829      5.91e-08     00000 
    8    -310.0680520834      2.64e-08     00000 
    9    -310.0680520835      8.53e-09     00000 Convergence criterion met
write pseudocanon occs and virts to disk
write pseudocanon orbital energies to disk
Timing for Total SCF: 216.00s (wall), 1294.07s (cpu)
<S^2> of ct_allowed wavefunction after ct-allowed iterations 0.0000000000

================================
        Results of EDA2         
================================
Basic EDA Quantities
--------------------
Fragment Energies (Ha):
1 -155.0294430332
2 -155.0291430303
--------------------
  E_prp (kJ/mol) = 0.0000
  E_frz (kJ/mol) = -9.2482
  E_pol (kJ/mol) = -6.8420
  E_vct (kJ/mol) = -8.7631
  E_int (kJ/mol) = -24.8533
--------------------


Decomposition of frozen interaction energy
--------------------
  --------------------
  Orthogonal Frozen Decomposition:
  --------------------
     E_elec   (ELEC)   (kJ/mol) = -77.0068
     E_pauli  (PAULI)  (kJ/mol) = 85.2790
     E_disp   (DISP)   (kJ/mol) = -17.5205
  --------------------
  Classical Frozen Decomposition:
  --------------------
     E_cls_elec  (CLS ELEC)  (kJ/mol) = -38.8134
     E_mod_pauli (MOD PAULI) (kJ/mol) = 44.5491 (FRZ - CLS ELEC - CLS DISP)
     E_cls_disp  (CLS DISP)  (kJ/mol) = -14.9839
  --------------------
--------------------

Simplified EDA Summary (kJ/mol)
--------------------
 PREPARATION      0.0000
 FROZEN           -9.2482 (ELEC + PAULI + DISP)
[ELEC + PAULI = 5.7357, DISP = -14.9839]
 POLARIZATION    -6.8420
 CHARGE TRANSFER -8.7631
 TOTAL           -24.8533     (PRP + FRZ + POL + CT)
--------------------
 
 --------------------------------------------------------------
 
                    Orbital Energies (a.u.)
 --------------------------------------------------------------
 
 Alpha MOs
 -- Occupied --
-19.3544 -19.3057 -10.4001 -10.3723 -10.3449 -10.3198  -1.1745  -1.1306
 -0.8863  -0.8566  -0.7587  -0.7263  -0.6294  -0.6053  -0.5778  -0.5601
 -0.5481  -0.5300  -0.4991  -0.4875  -0.4694  -0.4587  -0.4491  -0.4145
 -0.3958  -0.3606
 -- Virtual --
  0.0294   0.0495   0.0554   0.0612   0.0777   0.0856   0.0913   0.1064
  0.1153   0.1178   0.1320   0.1331   0.1408   0.1490   0.1585   0.1705
  0.1753   0.1785   0.1858   0.2007   0.2022   0.2109   0.2171   0.2294
  0.2326   0.2407   0.2531   0.2544   0.2622   0.2713   0.2735   0.2795
  0.2834   0.2946   0.2965   0.2998   0.3144   0.3177   0.3221   0.3262
  0.3275   0.3338   0.3367   0.3425   0.3458   0.3519   0.3541   0.3556
  0.3588   0.3651   0.3736   0.3803   0.3855   0.3929   0.3970   0.3992
  0.4013   0.4118   0.4130   0.4227   0.4303   0.4390   0.4493   0.4523
  0.4597   0.4680   0.4717   0.4760   0.4865   0.4892   0.4917   0.4944
  0.5020   0.5029   0.5222   0.5270   0.5371   0.5395   0.5501   0.5635
  0.5722   0.5798   0.5837   0.5965   0.6022   0.6136   0.6249   0.6410
  0.6518   0.6608   0.6661   0.6797   0.6938   0.6990   0.7166   0.7249
  0.7260   0.7295   0.7340   0.7420   0.7457   0.7509   0.7576   0.7666
  0.7686   0.7838   0.7902   0.7929   0.7955   0.8135   0.8227   0.8275
  0.8308   0.8510   0.8635   0.8712   0.8838   0.8992   0.9263   0.9344
  0.9467   0.9552   0.9682   0.9772   1.0049   1.0087   1.0147   1.0296
  1.0496   1.0631   1.0900   1.1028   1.1246   1.1312   1.1488   1.1778
  1.1887   1.1924   1.1980   1.2084   1.2259   1.2341   1.2375   1.2516
  1.2639   1.2691   1.2955   1.2992   1.3114   1.3325   1.3345   1.3501
  1.3587   1.3768   1.3836   1.3904   1.3973   1.4157   1.4318   1.4418
  1.4572   1.4760   1.4876   1.5008   1.5230   1.5504   1.5698   1.5848
  1.5985   1.6109   1.6239   1.6333   1.6371   1.6589   1.6679   1.6789
  1.6861   1.7063   1.7163   1.7365   1.7489   1.7599   1.7667   1.7813
  1.8090   1.8808   1.9177   1.9584   1.9672   2.0026   2.0410   2.0469
  2.0816   2.0835   2.1386   2.1592   2.2070   2.2192   2.2382   2.2555
  2.2857   2.3153   2.3508   2.3985   2.4043   2.4395   2.4714   2.4956
  2.5169   2.5460   2.6804   2.7086   2.7298   2.7796   2.8045   2.8244
  2.8268   2.8547   2.8681   2.8753   2.9031   2.9076   2.9203   2.9315
  2.9384   2.9438   2.9647   2.9773   3.0032   3.0144   3.0298   3.0430
  3.0552   3.0673   3.0822   3.1094   3.1190   3.1342   3.1571   3.1863
  3.1902   3.2148   3.2397   3.2471   3.2532   3.2573   3.2768   3.2894
  3.2957   3.3052   3.3129   3.3269   3.3331   3.3399   3.3717   3.3779
  3.4000   3.4198   3.4577   3.4771   3.4911   3.5067   3.5238   3.5380
  3.5662   3.5804   3.6096   3.6173   3.6387   3.6543   3.6832   3.7067
  3.7091   3.7280   3.7433   3.7568   3.7644   3.7797   3.7892   3.8138
  3.8309   3.8408   3.8718   3.8973   3.9163   3.9411   3.9789   3.9853
  4.0062   4.0157   4.0301   4.0505   4.0689   4.0993   4.1134   4.1196
  4.1274   4.1342   4.1479   4.1714   4.1803   4.1832   4.2039   4.2218
  4.2244   4.2331   4.2523   4.2610   4.2758   4.2857   4.2918   4.3146
  4.3346   4.3560   4.3896   4.4063   4.4198   4.4543   4.4639   4.4760
  4.4790   4.4946   4.5123   4.5229   4.5539   4.5943   4.5980   4.6445
  4.6841   4.6926   4.7103   4.7282   4.7331   4.7772   4.7962   4.8207
  4.8247   4.8479   4.9294   4.9550   4.9632   4.9706   4.9852   5.0020
  5.0156   5.0434   5.0543   5.1008   5.1308   5.1627   5.2096   5.2491
  5.2863   5.3125   5.3424   5.3926   5.3986   5.4106   5.4203   5.4352
  5.4455   5.4550   5.4740   5.4822   5.5041   5.5215   5.5783   5.5951
  5.5963   5.6348   5.6809   5.6891   5.7227   5.7301   5.7469   5.7707
  5.7971   5.8353   5.9065   5.9379   6.0941   6.1491   6.2949   6.3293
  6.6300   6.6895   6.8470   6.8712   6.9077   6.9416   7.0070   7.0145
  7.0985   7.1247   7.3804   7.4107   7.5518   7.6393   7.7994   7.8669
 23.7759  23.8285  24.0345  24.0758  44.7598  44.8349
 --------------------------------------------------------------
 
          Ground-State Mulliken Net Atomic Charges

     Atom                 Charge (a.u.)
  ----------------------------------------
      1 C                    -1.126715
      2 C                    -0.051674
      3 O                    -0.403656
      4 H                     0.119121
      5 H                     0.299590
      6 H                     0.298548
      7 H                     0.283536
      8 H                     0.334953
      9 H                     0.237853
     10 C                    -0.898121
     11 C                    -0.202466
     12 O                    -0.480623
     13 H                     0.263867
     14 H                     0.279227
     15 H                     0.234346
     16 H                     0.286160
     17 H                     0.236857
     18 H                     0.289197
  ----------------------------------------
  Sum of atomic charges =     0.000000

 -----------------------------------------------------------------
                    Cartesian Multipole Moments
 -----------------------------------------------------------------
    Charge (ESU x 10^10)
                -0.0000
    Dipole Moment (Debye)
         X      -2.7463      Y      -0.9947      Z      -0.3543
       Tot       2.9423
    Quadrupole Moments (Debye-Ang)
        XX     -37.1149     XY      -5.0647     YY     -42.4621
        XZ      -0.9456     YZ       2.4967     ZZ     -40.2389
    Octopole Moments (Debye-Ang^2)
       XXX      -7.4204    XXY       0.3608    XYY     -10.1157
       YYY       2.4878    XXZ       0.2717    XYZ      -3.0935
       YYZ       4.0135    XZZ      -2.5601    YZZ       4.8770
       ZZZ       4.0703
    Hexadecapole Moments (Debye-Ang^3)
      XXXX   -1112.5097   XXXY      -7.2774   XXYY    -223.3001
      XYYY      -8.6995   YYYY    -192.3440   XXXZ     -15.1492
      XXYZ       7.0579   XYYZ      -8.1681   YYYZ       7.2658
      XXZZ    -204.7904   XYZZ      -0.9845   YYZZ     -52.2540
      XZZZ      -5.7639   YZZZ       7.5388   ZZZZ    -144.1564
 -----------------------------------------------------------------
 Total job time:  1571.44s(wall), 5854.33s(cpu) 
 Fri Feb 28 07:50:02 2025

        *************************************************************
        *                                                           *
        *  Thank you very much for using Q-Chem.  Have a nice day.  *
        *                                                           *
        *************************************************************


