
Running Job 1 of 1 004_ethanol_dimer_03_almo.inp
qchem 004_ethanol_dimer_03_almo.inp_53478.0 /scratch/qchem53478/ 6
/home/kchung25/qchem/5.4.0/exe/qcprog.exe_s 004_ethanol_dimer_03_almo.inp_53478.0 /scratch/qchem53478/
                  Welcome to Q-Chem
     A Quantum Leap Into The Future Of Chemistry


 Q-Chem 5.4, Q-Chem, Inc., Pleasanton, CA (2021)

 E. Epifanovsky,  A. T. B. Gilbert,  Xintian Feng,  Joonho Lee,  Yuezhi Mao,  
 N. Mardirossian,  P. Pokhilko,  A. White,  M. Wormit,  M. P. Coons,  
 A. L. Dempwolff,  Zhengting Gan,  D. Hait,  P. R. Horn,  L. D. Jacobson,  
 I. Kaliman,  J. Kussmann,  A. W. Lange,  Ka Un Lao,  D. S. Levine,  Jie Liu,  
 S. C. McKenzie,  A. F. Morrison,  K. Nanda,  F. Plasser,  D. R. Rehn,  
 M. L. Vidal,  Zhi-Qiang You,  Ying Zhu,  B. Alam,  B. Albrecht,  
 A. Aldossary,  E. Alguire,  J. H. Andersen,  D. Barton,  K. Begam,  A. Behn,  
 Y. A. Bernard,  E. J. Berquist,  H. Burton,  A. Carreras,  K. Carter-Fenk,  
 Romit Chakraborty,  A. D. Chien,  K. D. Closser,  V. Cofer-Shabica,  
 S. Dasgupta,  Jia Deng,  M. de Wergifosse,  M. Diedenhofen,  Hainam Do,  
 S. Ehlert,  Po-Tung Fang,  S. Fatehi,  Qingguo Feng,  T. Friedhoff,  
 J. Gayvert,  Qinghui Ge,  G. Gidofalvi,  M. Goldey,  J. Gomes,  
 C. Gonzalez-Espinoza,  S. Gulania,  A. Gunina,  M. W. D. Hanson-Heine,  
 P. H. P. Harbach,  A. W. Hauser,  M. F. Herbst,  M. Hernandez Vera,  
 M. Hodecker,  Z. C. Holden,  S. Houck,  Xunkun Huang,  Kerwin Hui,  
 B. C. Huynh,  M. Ivanov,  Hyunjun Ji,  Hanjie Jiang,  B. Kaduk,  S. Kaehler,  
 K. Khistyaev,  Jaehoon Kim,  P. Klunzinger,  Z. Koczor-Benda,  
 Joong Hoon Koh,  D. Kosenkov,  L. Koulias,  T. Kowalczyk,  C. M. Krauter,  
 K. Kue,  A. Kunitsa,  T. Kus,  A. Landau,  K. V. Lawler,  D. Lefrancois,  
 S. Lehtola,  Rain Li,  Yi-Pei Li,  Jiashu Liang,  M. Liebenthal,  
 Hung-Hsuan Lin,  You-Sheng Lin,  Fenglai Liu,  Kuan-Yu Liu,  
 M. Loipersberger,  A. Luenser,  A. Manjanath,  P. Manohar,  E. Mansoor,  
 S. F. Manzer,  Shan-Ping Mao,  A. V. Marenich,  T. Markovich,  S. Mason,  
 S. A. Maurer,  P. F. McLaughlin,  M. F. S. J. Menger,  J.-M. Mewes,  
 S. A. Mewes,  P. Morgante,  J. W. Mullinax,  K. J. Oosterbaan,  G. Paran,  
 Alexander C. Paul,  Suranjan K. Paul,  F. Pavosevic,  Zheng Pei,  S. Prager,  
 E. I. Proynov,  E. Ramos,  B. Rana,  A. E. Rask,  A. Rettig,  R. M. Richard,  
 F. Rob,  E. Rossomme,  T. Scheele,  M. Scheurer,  M. Schneider,  
 N. Sergueev,  S. M. Sharada,  W. Skomorowski,  D. W. Small,  C. J. Stein,  
 Yu-Chuan Su,  E. J. Sundstrom,  Zhen Tao,  J. Thirman,  T. Tsuchimochi,  
 N. M. Tubman,  S. P. Veccham,  O. Vydrov,  J. Wenzel,  J. Witte,  A. Yamada,  
 Kun Yao,  S. Yeganeh,  S. R. Yost,  A. Zech,  Igor Ying Zhang,  Xing Zhang,  
 Yu Zhang,  D. Zuev,  A. Aspuru-Guzik,  A. T. Bell,  N. A. Besley,  
 K. B. Bravaya,  B. R. Brooks,  D. Casanova,  Jeng-Da Chai,  S. Coriani,  
 C. J. Cramer,  A. E. DePrince, III,  R. A. DiStasio Jr.,  A. Dreuw,  
 B. D. Dunietz,  T. R. Furlani,  W. A. Goddard III,  S. Grimme,  
 S. Hammes-Schiffer,  T. Head-Gordon,  W. J. Hehre,  Chao-Ping Hsu,  
 T.-C. Jagau,  Yousung Jung,  A. Klamt,  Jing Kong,  D. S. Lambrecht,  
 WanZhen Liang,  N. J. Mayhall,  C. W. McCurdy,  J. B. Neaton,  T. Neudecker,  
 C. Ochsenfeld,  J. A. Parkhill,  R. Peverati,  V. A. Rassolov,  Yihan Shao,  
 L. V. Slipchenko,  R. P. Steele,  J. E. Subotnik,  A. J. W. Thom,  
 A. Tkatchenko,  D. G. Truhlar,  T. Van Voorhis,  T. A. Wesolowski,  
 K. B. Whaley,  H. L. Woodcock III,  P. M. Zimmerman,  S. Faraji,  
 P. M. W. Gill,  M. Head-Gordon,  J. M. Herbert,  A. I. Krylov

 Additional authors since Version 5.4.0: 
 Chandrima Chakravarty,  L. Cunha,  R. Kang,  Yongbin Kim,  S. Kotaru,  
 Shaozhi Li,  Xiangyuan Li,  F. Matz,  A. Molle,  V. Parravicini,  
 Haisheng Ren,  Hengyuan Shen,  Yingli Su,  Hung-Yi Tsai,  C. Utku,  
 Fang Wang,  Jeff Yang,  F. Zeller

 Contributors to earlier versions of Q-Chem not listed above: 
 R. D. Adamson,  B. Austin,  R. Baer,  J. Baker,  G. J. O. Beran,  
 K. Brandhorst,  S. T. Brown,  E. F. C. Byrd,  Arup K. Chakraborty,  
 G. K. L. Chan,  Chun-Min Chang,  Yunqing Chen,  C.-L. Cheng,  
 Siu Hung Chien,  D. M. Chipman,  D. L. Crittenden,  H. Dachsel,  
 R. J. Doerksen,  A. D. Dutoi,  R. G. Edgar,  J. Fosso-Tande,  
 L. Fusti-Molnar,  D. Ghosh,  A. Ghysels,  A. Golubeva-Zadorozhnaya,  
 J. Gonthier,  M. S. Gordon,  S. R. Gwaltney,  G. Hawkins,  J. E. Herr,  
 A. Heyden,  S. Hirata,  E. G. Hohenstein,  G. Kedziora,  F. J. Keil,  
 C. Kelley,  Jihan Kim,  R. A. King,  R. Z. Khaliullin,  P. P. Korambath,  
 W. Kurlancheek,  A. Laurent,  A. M. Lee,  M. S. Lee,  S. V. Levchenko,  
 Ching Yeh Lin,  D. Liotard,  E. Livshits,  R. C. Lochan,  I. Lotan,  
 L. A. Martinez-Martinez,  P. E. Maslen,  N. Nair,  D. P. O'Neill,  
 D. Neuhauser,  E. Neuscamman,  C. M. Oana,  R. Olivares-Amaya,  R. Olson,  
 T. M. Perrine,  B. Peters,  P. A. Pieniazek,  A. Prociuk,  Y. M. Rhee,  
 J. Ritchie,  M. A. Rohrdanz,  E. Rosta,  N. J. Russ,  H. F. Schaefer III,  
 M. W. Schmidt,  N. E. Schultz,  S. Sharma,  N. Shenvi,  C. D. Sherrill,  
 A. C. Simmonett,  A. Sodt,  T. Stein,  D. Stuck,  K. S. Thanthiriwatte,  
 V. Vanovschi,  L. Vogt,  Tao Wang,  A. Warshel,  M. A. Watson,  
 C. F. Williams,  Q. Wu,  X. Xu,  Jun Yang,  W. Zhang,  Yan Zhao

   Please cite Q-Chem as follows:
  "Software for the frontiers of quantum chemistry:
   An overview of developments in the Q-Chem 5 package"
   J. Chem. Phys. 155, 084801 (2021)
   https://doi.org/10.1063/5.0055522 (open access)

 Q-Chem 5.4.2 for Intel X86 EM64T Linux

 Parts of Q-Chem use Armadillo 9.900.5 (Nocturnal Misbehaviour).
 http://arma.sourceforge.net/

 Q-Chem begins on Fri Feb 28 00:20:05 2025  

 Host: 
0

     Scratch files written to /scratch/qchem53478//
 Dec1321 |scratch|qcdevops|jenkins|workspace|build_RNUM 5684   
 Processing $rem in /home/kchung25/qchem/5.4.0/config/preferences:
 Processing $rem in /home/kchung25/.qchemrc:

 Q-Chem warning in module libgen/rem_setup.C, line 3079:

 Neither GIA nor STOLL is specified by user. Use STOLL as the default


 Checking the input file for inconsistencies... 	...done.

--------------------------------------------------------------
User input:
--------------------------------------------------------------
$molecule
0 1
--
0 1
C    2.705068   0.610720  -0.064798
C    1.873022  -0.533017   0.462467
O    0.955402  -1.011338  -0.487410
H    0.348527  -0.282121  -0.686811
H    3.433977   0.947011   0.676255
H    2.065278   1.460338  -0.318595
H    3.241542   0.307945  -0.966339
H    1.358681  -0.221092   1.386265
H    2.512259  -1.378805   0.732867
--
0 1
C   -2.651856  -0.648398  -0.121827
C   -1.810098   0.386372   0.576450
O   -0.952614   1.076867  -0.319209
H   -1.485289   1.478530  -1.010883
H   -3.285694  -1.180235   0.590143
H   -2.016952  -1.377996  -0.628281
H   -3.306972  -0.184647  -0.865432
H   -1.147403  -0.087825   1.304799
H   -2.437075   1.100605   1.125209
$end

$rem
JOBTYPE          eda
EDA2             1
METHOD           wB97M-V
BASIS            def2-TZVPPD
SYMMETRY         false
MEM_TOTAL        50000
MEM_STATIC       10000
THRESH           14
SCF_CONVERGENCE  8
XC_GRID          000099000590
NL_GRID          1
EDA_CLS_DISP     true
FD_MAT_VEC_PROD  FALSE
$end
--------------------------------------------------------------
 ----------------------------------------------------------------
             Standard Nuclear Orientation (Angstroms)
    I     Atom           X                Y                Z
 ----------------------------------------------------------------
    1      C       2.7050679830    -0.6107200968     0.0647981810
    2      C       1.8730220882     0.5330169531    -0.4624668767
    3      O       0.9554020246     1.0113379830     0.4874100469
    4      H       0.3485269701     0.2821210098     0.6868109790
    5      H       3.4339770344    -0.9470111208    -0.6762547575
    6      H       2.0652779175    -1.4603380693     0.3185951081
    7      H       3.2415419151    -0.3079451383     0.9663392353
    8      H       1.3586811577     0.2210919939    -1.3862649291
    9      H       2.5122591550     1.3788049259    -0.7328668039
   10      C      -2.6518559598     0.6483981680     0.1218267091
   11      C      -1.8100979469    -0.3863718622    -0.5764502305
   12      O      -0.9526140636    -1.0768669195     0.3192088369
   13      H      -1.4852891471    -1.4785299045     1.0108827813
   14      H      -3.2856938679     1.1802352112    -0.5901433404
   15      H      -2.0169519702     1.3779961282     0.6282807796
   16      H      -3.3069720512     0.1846471883     0.8654316413
   17      H      -1.1474028564     0.0878251169    -1.3047991618
   18      H      -2.4370749319    -1.1006048220    -1.1252093000
 ----------------------------------------------------------------
 Molecular Point Group                 C1    NOp =  1
 Largest Abelian Subgroup              C1    NOp =  1
 Nuclear Repulsion Energy =         258.25866591 hartrees
 There are       26 alpha and       26 beta electrons
 Requested basis set is def2-TZVPPD
 There are 164 shells and 432 basis functions

 Q-Chem warning in module libmdc/get_mega.C, line 171:

 Allowed MEM_STATIC has been capped at MEM_STATIC=8191.
 Reduce the value of MEM_STATIC to silence this warning.


 Total QAlloc Memory Limit  50000 MB
 Mega-Array Size      8007 MB
 MEM_STATIC part      8191 MB
 A cutoff of  1.0D-14 yielded  12417 shell pairs
 There are     85759 function pairs (    105616 Cartesian)
 Smallest overlap matrix eigenvalue = 8.93E-06

 Scale SEOQF with 1.000000e-01/1.000000e-01/1.000000e-01

 Standard Electronic Orientation quadrupole field applied
 Nucleus-field energy     =     0.0000000085 hartrees

 -----------------------------------------------------------------------
  General SCF calculation program by
  Eric Jon Sundstrom, Paul Horn, Yuezhi Mao, Dmitri Zuev, Alec White,
  David Stuck, Shaama M.S., Shane Yost, Joonho Lee, David Small,
  Daniel Levine, Susi Lehtola, Hugh Burton, Evgeny Epifanovsky,
  Bang C. Huynh
 -----------------------------------------------------------------------
================================================================
                 ALMO-EDA with the EDA2 driver                  
================================================================
 The second-generation ALMO-EDA (for DFT):                      
 P. R. Horn, Y. Mao and M. Head-Gordon, PCCP, 18, 23067 (2016)  
 Y. Mao et al. Annu. Rev. Phys. Chem. 72, 641 (2021)            
 Decomposition of the frozen energy:                            
 P. R. Horn, Y. Mao and M. Head-Gordon, JCP, 144, 114107 (2016) 
 FERF model for polarization:                                   
 P. R. Horn and M. Head-Gordon, JCP, 143, 114111 (2015)         
================================================================
 Using eda2 option set 1
 Option set summary: Frozen orbital wavefunction, initial wavefunction decomposition, and nDQ polarization.
--------------------------------
Printing EDA Options
--------------------------------
eda_child_super_basis      0
fragmo_guess_mode          0
child_mp                   1
child_mp_orders            232
cls_elec                   1
cls_disp                   1
scfmi_mode                 1
scfmi_occs                 0
scfmi_virts                0
frz_relax                  0
frz_relax_method           0
dc_pen_start               0
dc_pen_conv                0
dc_pen_increment           0
dc_pen_steps               0
dc_pen_thresh_factor       0
dc_pen_pre_newton_thresh   0
frz_ortho_decomp           1
frz_ortho_decomp_conv      6
plot_mo_ortho_frz          0
frgm_method                2
scfmi_freeze_ss            0
separate_rehyb             0
plot_diff_den              0
eda_nocv                   0
eda_vct_relax              1
disp_free_x                0
disp_free_c                0
eda_bsse                   0
eda_pct_a                  0
eda_covp                   0
--------------------------------
Attempting to make child job directory: /scratch/qchem53478//Frg1/
Attempting to make child job directory: /scratch/qchem53478//Frg2/
Creating input file /scratch/qchem53478/Frg1.input
using default PutDataFrgm: nothing
calling putenv with: QCSCRATCH=/scratch/qchem53478/ 
Spawning Job For Fragment 0
Done Job For Fragment 0
calling putenv with: QCSCRATCH=/scratch 
calling putenv with: QCTHREADS=6 
Creating input file /scratch/qchem53478/Frg2.input
using default PutDataFrgm: nothing
calling putenv with: QCSCRATCH=/scratch/qchem53478/ 
Spawning Job For Fragment 1
Done Job For Fragment 1
calling putenv with: QCSCRATCH=/scratch 
calling putenv with: QCTHREADS=6 
Doing General SCFMI
 Exchange:     0.1500 Hartree-Fock + 1.0000 wB97M-V + LR-HF
 Correlation:  1.0000 wB97M-V
 Using Euler-Maclaurin-Lebedev (99,590) quadrature formula
 Nonlocal Correlation:  VV10 with C = 0.0100 and b = 6.00 and scale = 1.00000
 Grid used for NLC:  SG-1 standard quadrature
performing fock build before subrot guess so that all methods have access
Printing subrot_rss_gen Method Specification:
Occupied Subspace Method is 0
Virtual Subspace Method is 0
Energy of the unrelaxed supersystem initial determinant -310.062618466501
write pseudocanon occs and virts to disk
write pseudocanon orbital energies to disk
Tolerance of ortho_decomp_scf: 1.00e-06
GDM subspace size: 20
Beginning the Orthogonal Decomposition of the Initial Supersystem Wavefunction
    1    -310.0095230511      9.72e-02     ortho_decomp Preconditoned Steepest Descent
    2    -310.0163916729      2.14e-03     ortho_decomp BFGS Step
    3    -310.0164121520      1.68e-04     ortho_decomp BFGS Step
    4    -310.0164121806      5.56e-06     ortho_decomp BFGS Step
    5    -310.0164121806      1.53e-07     ortho_decomp 00000 Convergence criterion met
 Hartree-Fock
 Hartree-Fock
 Hartree-Fock
 Exchange:     0.1500 Hartree-Fock + 1.0000 wB97M-V + LR-HF
 Correlation:  1.0000 wB97M-V
 Using Euler-Maclaurin-Lebedev (99,590) quadrature formula
 Nonlocal Correlation:  VV10 with C = 0.0100 and b = 6.00 and scale = 1.00000
 Grid used for NLC:  SG-1 standard quadrature
 Long-range K will be added via erf
 Coulomb attenuation parameter = 0.3 bohr**(-1)
 Nonlocal correlation = 2.037913303934e-01
Doing General SCFMI
 Exchange:     0.1500 Hartree-Fock + 1.0000 wB97M-V + LR-HF
 Correlation:  1.0000 wB97M-V
 Using Euler-Maclaurin-Lebedev (99,590) quadrature formula
 Nonlocal Correlation:  VV10 with C = 0.0100 and b = 6.00 and scale = 1.00000
 Grid used for NLC:  SG-1 standard quadrature
performing fock build at end of subrot_r(subrot) constructor so that all methods have access
<S^2> of initial wavefunction before polarization iterations 0.0000000000
Beginning iterations for the determination of the polarized wavefunction
Energy prior to optimization (guess energy) = -310.062618466501
Begin Timing: Total SCF Calculation
begin iterations for algorithm: DIIS         
the SCF tolerance is set to 1.00e-08
    1    -310.0626184665      3.03e-04     00000 
    2    -310.0652228309      9.78e-05     00000 
    3    -310.0654450433      5.85e-05     00000 
    4    -310.0654993140      2.26e-05     00000 
    5    -310.0655110821      7.75e-06     00000 
    6    -310.0655146404      3.53e-06     00000 
    7    -310.0655152926      1.65e-06     00000 
    8    -310.0655154529      6.37e-07     00000 
    9    -310.0655154648      3.06e-07     00000 
   10    -310.0655154672      8.74e-08     00000 
   11    -310.0655154676      3.73e-08     00000 
   12    -310.0655154676      1.88e-08     00000 
   13    -310.0655154676      7.71e-09     00000 Convergence criterion met
write pseudocanon occs and virts to disk
write pseudocanon orbital energies to disk
Timing for Total SCF: 317.00s (wall), 1902.69s (cpu)
<S^2> of polarized wavefunction after polarization iterations 0.0000000000
relaxing scfmi constraint to allow all rotations in the entire AO span
Doing General SCFMI
 Exchange:     0.1500 Hartree-Fock + 1.0000 wB97M-V + LR-HF
 Correlation:  1.0000 wB97M-V
 Using Euler-Maclaurin-Lebedev (99,590) quadrature formula
 Nonlocal Correlation:  VV10 with C = 0.0100 and b = 6.00 and scale = 1.00000
 Grid used for NLC:  SG-1 standard quadrature
performing fock build at end of subrot_r(subrot) constructor so that all methods have access
<S^2> of polarized wavefunction before ct-allowed iterations 0.0000000000
Beginning iterations for the determination of the CT-Allowed wavefunction
Energy prior to optimization (guess energy) = -310.065515467624
Begin Timing: Total SCF Calculation
begin iterations for algorithm: DIIS         
the SCF tolerance is set to 1.00e-08
    1    -310.0655154676      1.78e-04     00000 
    2    -310.0688050934      2.57e-05     00000 
    3    -310.0689174263      1.10e-05     00000 
    4    -310.0689249258      5.33e-06     00000 
    5    -310.0689271527      4.77e-07     00000 
    6    -310.0689271957      2.57e-07     00000 
    7    -310.0689272035      6.36e-08     00000 
    8    -310.0689272040      2.68e-08     00000 
    9    -310.0689272040      7.76e-09     00000 Convergence criterion met
write pseudocanon occs and virts to disk
write pseudocanon orbital energies to disk
Timing for Total SCF: 210.00s (wall), 1259.16s (cpu)
<S^2> of ct_allowed wavefunction after ct-allowed iterations 0.0000000000

================================
        Results of EDA2         
================================
Basic EDA Quantities
--------------------
Fragment Energies (Ha):
1 -155.0291080726
2 -155.0294854660
--------------------
  E_prp (kJ/mol) = 0.0000
  E_frz (kJ/mol) = -10.5676
  E_pol (kJ/mol) = -7.6062
  E_vct (kJ/mol) = -8.9576
  E_int (kJ/mol) = -27.1314
--------------------


Decomposition of frozen interaction energy
--------------------
  --------------------
  Orthogonal Frozen Decomposition:
  --------------------
     E_elec   (ELEC)   (kJ/mol) = -81.4490
     E_pauli  (PAULI)  (kJ/mol) = 89.1730
     E_disp   (DISP)   (kJ/mol) = -18.2916
  --------------------
  Classical Frozen Decomposition:
  --------------------
     E_cls_elec  (CLS ELEC)  (kJ/mol) = -42.0410
     E_mod_pauli (MOD PAULI) (kJ/mol) = 47.0700 (FRZ - CLS ELEC - CLS DISP)
     E_cls_disp  (CLS DISP)  (kJ/mol) = -15.5965
  --------------------
--------------------

Simplified EDA Summary (kJ/mol)
--------------------
 PREPARATION      0.0000
 FROZEN           -10.5676 (ELEC + PAULI + DISP)
[ELEC + PAULI = 5.0289, DISP = -15.5965]
 POLARIZATION    -7.6062
 CHARGE TRANSFER -8.9576
 TOTAL           -27.1314     (PRP + FRZ + POL + CT)
--------------------
 
 --------------------------------------------------------------
 
                    Orbital Energies (a.u.)
 --------------------------------------------------------------
 
 Alpha MOs
 -- Occupied --
-19.3539 -19.3054 -10.3981 -10.3708 -10.3395 -10.3172  -1.1737  -1.1300
 -0.8827  -0.8548  -0.7550  -0.7237  -0.6362  -0.5980  -0.5728  -0.5597
 -0.5453  -0.5266  -0.4970  -0.4847  -0.4683  -0.4576  -0.4444  -0.4128
 -0.3958  -0.3605
 -- Virtual --
  0.0293   0.0527   0.0561   0.0602   0.0784   0.0884   0.0947   0.1049
  0.1153   0.1184   0.1296   0.1395   0.1501   0.1535   0.1635   0.1729
  0.1760   0.1808   0.1862   0.1938   0.2023   0.2138   0.2243   0.2350
  0.2473   0.2493   0.2550   0.2578   0.2604   0.2726   0.2742   0.2842
  0.2909   0.2965   0.2971   0.3008   0.3140   0.3152   0.3266   0.3312
  0.3329   0.3382   0.3397   0.3439   0.3499   0.3521   0.3550   0.3578
  0.3684   0.3707   0.3734   0.3806   0.3905   0.3943   0.3986   0.4008
  0.4072   0.4127   0.4192   0.4287   0.4347   0.4434   0.4534   0.4540
  0.4631   0.4647   0.4680   0.4732   0.4778   0.4846   0.4913   0.4998
  0.5063   0.5085   0.5249   0.5349   0.5450   0.5501   0.5580   0.5710
  0.5771   0.5835   0.5901   0.5934   0.6038   0.6160   0.6276   0.6358
  0.6445   0.6596   0.6632   0.6670   0.6913   0.7060   0.7081   0.7111
  0.7177   0.7288   0.7355   0.7435   0.7503   0.7593   0.7644   0.7674
  0.7724   0.7831   0.7849   0.7944   0.7960   0.8204   0.8258   0.8345
  0.8438   0.8466   0.8695   0.8770   0.8829   0.9007   0.9251   0.9287
  0.9411   0.9465   0.9511   0.9924   1.0077   1.0177   1.0329   1.0415
  1.0686   1.0892   1.1018   1.1165   1.1256   1.1405   1.1614   1.1705
  1.1904   1.1990   1.2089   1.2117   1.2320   1.2402   1.2454   1.2597
  1.2762   1.2811   1.2982   1.3112   1.3207   1.3265   1.3359   1.3475
  1.3528   1.3682   1.3799   1.3985   1.4093   1.4217   1.4366   1.4558
  1.4671   1.4725   1.4904   1.5153   1.5307   1.5434   1.5607   1.5873
  1.5993   1.6188   1.6417   1.6554   1.6618   1.6714   1.6756   1.6803
  1.6888   1.7058   1.7140   1.7285   1.7360   1.7561   1.7630   1.7788
  1.8131   1.8279   1.9418   1.9646   1.9681   1.9877   2.0159   2.0482
  2.0805   2.1154   2.1366   2.1638   2.2084   2.2168   2.2451   2.2636
  2.2798   2.3590   2.3770   2.4001   2.4152   2.4360   2.4574   2.4939
  2.5201   2.5393   2.6895   2.7074   2.7489   2.7497   2.8019   2.8175
  2.8314   2.8596   2.8705   2.8834   2.8855   2.9065   2.9217   2.9303
  2.9412   2.9502   2.9691   2.9808   3.0057   3.0237   3.0421   3.0540
  3.0610   3.0824   3.1010   3.1116   3.1240   3.1287   3.1641   3.1787
  3.1976   3.2222   3.2391   3.2482   3.2555   3.2709   3.2782   3.2842
  3.3014   3.3055   3.3098   3.3210   3.3404   3.3554   3.3622   3.3926
  3.3995   3.4467   3.4520   3.4811   3.4956   3.5254   3.5326   3.5447
  3.5880   3.5986   3.6050   3.6203   3.6420   3.6603   3.6689   3.7074
  3.7145   3.7294   3.7401   3.7517   3.7586   3.7632   3.7782   3.8149
  3.8224   3.8487   3.8719   3.9045   3.9130   3.9217   3.9736   4.0049
  4.0117   4.0133   4.0231   4.0353   4.0569   4.0770   4.1119   4.1259
  4.1327   4.1415   4.1594   4.1674   4.1881   4.2097   4.2216   4.2301
  4.2345   4.2524   4.2554   4.2719   4.2744   4.2890   4.3080   4.3265
  4.3432   4.3589   4.3851   4.4064   4.4413   4.4445   4.4641   4.4747
  4.4861   4.5053   4.5077   4.5233   4.5466   4.5571   4.5996   4.6226
  4.6759   4.6894   4.7068   4.7245   4.7512   4.7862   4.7987   4.8150
  4.8238   4.8511   4.9349   4.9620   4.9672   4.9716   4.9990   5.0030
  5.0299   5.0453   5.0595   5.1163   5.1480   5.1695   5.2164   5.2538
  5.2934   5.3063   5.3320   5.3936   5.4093   5.4219   5.4287   5.4372
  5.4443   5.4502   5.4705   5.5020   5.5129   5.5215   5.5743   5.5994
  5.6024   5.6317   5.6702   5.6963   5.7243   5.7445   5.7515   5.7807
  5.7956   5.8294   5.8975   5.9485   6.0866   6.1470   6.2941   6.3255
  6.6108   6.6928   6.8682   6.8821   6.9309   6.9591   7.0001   7.0197
  7.0968   7.1401   7.3797   7.4076   7.5428   7.6323   7.8012   7.8842
 23.7862  23.8215  24.0485  24.0747  44.7380  44.8572
 --------------------------------------------------------------
 
          Ground-State Mulliken Net Atomic Charges

     Atom                 Charge (a.u.)
  ----------------------------------------
      1 C                    -0.942682
      2 C                    -0.180829
      3 O                    -0.468413
      4 H                     0.252193
      5 H                     0.297849
      6 H                     0.229824
      7 H                     0.267988
      8 H                     0.232524
      9 H                     0.305302
     10 C                    -0.926673
     11 C                    -0.179091
     12 O                    -0.355386
     13 H                     0.116115
     14 H                     0.279244
     15 H                     0.253489
     16 H                     0.282631
     17 H                     0.184958
     18 H                     0.350956
  ----------------------------------------
  Sum of atomic charges =     0.000000

 -----------------------------------------------------------------
                    Cartesian Multipole Moments
 -----------------------------------------------------------------
    Charge (ESU x 10^10)
                 0.0000
    Dipole Moment (Debye)
         X      -2.2801      Y      -1.5571      Z      -0.4787
       Tot       2.8022
    Quadrupole Moments (Debye-Ang)
        XX     -35.0573     XY       0.8909     YY     -42.7581
        XZ      -2.3184     YZ      -3.0636     ZZ     -39.3813
    Octopole Moments (Debye-Ang^2)
       XXX      -8.5224    XXY      -2.7670    XYY      -6.2975
       YYY      -5.1755    XXZ      -0.1045    XYZ       1.7300
       YYZ       2.0957    XZZ      -4.9367    YZZ      -3.9741
       ZZZ       4.1870
    Hexadecapole Moments (Debye-Ang^3)
      XXXX   -1065.4733   XXXY      23.9858   XXYY    -208.4900
      XYYY      15.9762   YYYY    -211.1718   XXXZ      -5.1975
      XXYZ      -7.7551   XYYZ      -6.9878   YYYZ      -9.0041
      XXZZ    -193.8058   XYZZ       6.0433   YYZZ     -51.0893
      XZZZ      -2.8410   YZZZ      -5.0893   ZZZZ    -117.2103
 -----------------------------------------------------------------
 Total job time:  1691.04s(wall), 6098.58s(cpu) 
 Fri Feb 28 00:48:16 2025

        *************************************************************
        *                                                           *
        *  Thank you very much for using Q-Chem.  Have a nice day.  *
        *                                                           *
        *************************************************************


