
Running Job 1 of 1 004_ethanol_dimer_50_almo.inp
qchem 004_ethanol_dimer_50_almo.inp_149900.0 /scratch/qchem149900/ 6
/home/kchung25/qchem/5.4.0/exe/qcprog.exe_s 004_ethanol_dimer_50_almo.inp_149900.0 /scratch/qchem149900/
                  Welcome to Q-Chem
     A Quantum Leap Into The Future Of Chemistry


 Q-Chem 5.4, Q-Chem, Inc., Pleasanton, CA (2021)

 E. Epifanovsky,  A. T. B. Gilbert,  Xintian Feng,  Joonho Lee,  Yuezhi Mao,  
 N. Mardirossian,  P. Pokhilko,  A. White,  M. Wormit,  M. P. Coons,  
 A. L. Dempwolff,  Zhengting Gan,  D. Hait,  P. R. Horn,  L. D. Jacobson,  
 I. Kaliman,  J. Kussmann,  A. W. Lange,  Ka Un Lao,  D. S. Levine,  Jie Liu,  
 S. C. McKenzie,  A. F. Morrison,  K. Nanda,  F. Plasser,  D. R. Rehn,  
 M. L. Vidal,  Zhi-Qiang You,  Ying Zhu,  B. Alam,  B. Albrecht,  
 A. Aldossary,  E. Alguire,  J. H. Andersen,  D. Barton,  K. Begam,  A. Behn,  
 Y. A. Bernard,  E. J. Berquist,  H. Burton,  A. Carreras,  K. Carter-Fenk,  
 Romit Chakraborty,  A. D. Chien,  K. D. Closser,  V. Cofer-Shabica,  
 S. Dasgupta,  Jia Deng,  M. de Wergifosse,  M. Diedenhofen,  Hainam Do,  
 S. Ehlert,  Po-Tung Fang,  S. Fatehi,  Qingguo Feng,  T. Friedhoff,  
 J. Gayvert,  Qinghui Ge,  G. Gidofalvi,  M. Goldey,  J. Gomes,  
 C. Gonzalez-Espinoza,  S. Gulania,  A. Gunina,  M. W. D. Hanson-Heine,  
 P. H. P. Harbach,  A. W. Hauser,  M. F. Herbst,  M. Hernandez Vera,  
 M. Hodecker,  Z. C. Holden,  S. Houck,  Xunkun Huang,  Kerwin Hui,  
 B. C. Huynh,  M. Ivanov,  Hyunjun Ji,  Hanjie Jiang,  B. Kaduk,  S. Kaehler,  
 K. Khistyaev,  Jaehoon Kim,  P. Klunzinger,  Z. Koczor-Benda,  
 Joong Hoon Koh,  D. Kosenkov,  L. Koulias,  T. Kowalczyk,  C. M. Krauter,  
 K. Kue,  A. Kunitsa,  T. Kus,  A. Landau,  K. V. Lawler,  D. Lefrancois,  
 S. Lehtola,  Rain Li,  Yi-Pei Li,  Jiashu Liang,  M. Liebenthal,  
 Hung-Hsuan Lin,  You-Sheng Lin,  Fenglai Liu,  Kuan-Yu Liu,  
 M. Loipersberger,  A. Luenser,  A. Manjanath,  P. Manohar,  E. Mansoor,  
 S. F. Manzer,  Shan-Ping Mao,  A. V. Marenich,  T. Markovich,  S. Mason,  
 S. A. Maurer,  P. F. McLaughlin,  M. F. S. J. Menger,  J.-M. Mewes,  
 S. A. Mewes,  P. Morgante,  J. W. Mullinax,  K. J. Oosterbaan,  G. Paran,  
 Alexander C. Paul,  Suranjan K. Paul,  F. Pavosevic,  Zheng Pei,  S. Prager,  
 E. I. Proynov,  E. Ramos,  B. Rana,  A. E. Rask,  A. Rettig,  R. M. Richard,  
 F. Rob,  E. Rossomme,  T. Scheele,  M. Scheurer,  M. Schneider,  
 N. Sergueev,  S. M. Sharada,  W. Skomorowski,  D. W. Small,  C. J. Stein,  
 Yu-Chuan Su,  E. J. Sundstrom,  Zhen Tao,  J. Thirman,  T. Tsuchimochi,  
 N. M. Tubman,  S. P. Veccham,  O. Vydrov,  J. Wenzel,  J. Witte,  A. Yamada,  
 Kun Yao,  S. Yeganeh,  S. R. Yost,  A. Zech,  Igor Ying Zhang,  Xing Zhang,  
 Yu Zhang,  D. Zuev,  A. Aspuru-Guzik,  A. T. Bell,  N. A. Besley,  
 K. B. Bravaya,  B. R. Brooks,  D. Casanova,  Jeng-Da Chai,  S. Coriani,  
 C. J. Cramer,  A. E. DePrince, III,  R. A. DiStasio Jr.,  A. Dreuw,  
 B. D. Dunietz,  T. R. Furlani,  W. A. Goddard III,  S. Grimme,  
 S. Hammes-Schiffer,  T. Head-Gordon,  W. J. Hehre,  Chao-Ping Hsu,  
 T.-C. Jagau,  Yousung Jung,  A. Klamt,  Jing Kong,  D. S. Lambrecht,  
 WanZhen Liang,  N. J. Mayhall,  C. W. McCurdy,  J. B. Neaton,  T. Neudecker,  
 C. Ochsenfeld,  J. A. Parkhill,  R. Peverati,  V. A. Rassolov,  Yihan Shao,  
 L. V. Slipchenko,  R. P. Steele,  J. E. Subotnik,  A. J. W. Thom,  
 A. Tkatchenko,  D. G. Truhlar,  T. Van Voorhis,  T. A. Wesolowski,  
 K. B. Whaley,  H. L. Woodcock III,  P. M. Zimmerman,  S. Faraji,  
 P. M. W. Gill,  M. Head-Gordon,  J. M. Herbert,  A. I. Krylov

 Additional authors since Version 5.4.0: 
 Chandrima Chakravarty,  L. Cunha,  R. Kang,  Yongbin Kim,  S. Kotaru,  
 Shaozhi Li,  Xiangyuan Li,  F. Matz,  A. Molle,  V. Parravicini,  
 Haisheng Ren,  Hengyuan Shen,  Yingli Su,  Hung-Yi Tsai,  C. Utku,  
 Fang Wang,  Jeff Yang,  F. Zeller

 Contributors to earlier versions of Q-Chem not listed above: 
 R. D. Adamson,  B. Austin,  R. Baer,  J. Baker,  G. J. O. Beran,  
 K. Brandhorst,  S. T. Brown,  E. F. C. Byrd,  Arup K. Chakraborty,  
 G. K. L. Chan,  Chun-Min Chang,  Yunqing Chen,  C.-L. Cheng,  
 Siu Hung Chien,  D. M. Chipman,  D. L. Crittenden,  H. Dachsel,  
 R. J. Doerksen,  A. D. Dutoi,  R. G. Edgar,  J. Fosso-Tande,  
 L. Fusti-Molnar,  D. Ghosh,  A. Ghysels,  A. Golubeva-Zadorozhnaya,  
 J. Gonthier,  M. S. Gordon,  S. R. Gwaltney,  G. Hawkins,  J. E. Herr,  
 A. Heyden,  S. Hirata,  E. G. Hohenstein,  G. Kedziora,  F. J. Keil,  
 C. Kelley,  Jihan Kim,  R. A. King,  R. Z. Khaliullin,  P. P. Korambath,  
 W. Kurlancheek,  A. Laurent,  A. M. Lee,  M. S. Lee,  S. V. Levchenko,  
 Ching Yeh Lin,  D. Liotard,  E. Livshits,  R. C. Lochan,  I. Lotan,  
 L. A. Martinez-Martinez,  P. E. Maslen,  N. Nair,  D. P. O'Neill,  
 D. Neuhauser,  E. Neuscamman,  C. M. Oana,  R. Olivares-Amaya,  R. Olson,  
 T. M. Perrine,  B. Peters,  P. A. Pieniazek,  A. Prociuk,  Y. M. Rhee,  
 J. Ritchie,  M. A. Rohrdanz,  E. Rosta,  N. J. Russ,  H. F. Schaefer III,  
 M. W. Schmidt,  N. E. Schultz,  S. Sharma,  N. Shenvi,  C. D. Sherrill,  
 A. C. Simmonett,  A. Sodt,  T. Stein,  D. Stuck,  K. S. Thanthiriwatte,  
 V. Vanovschi,  L. Vogt,  Tao Wang,  A. Warshel,  M. A. Watson,  
 C. F. Williams,  Q. Wu,  X. Xu,  Jun Yang,  W. Zhang,  Yan Zhao

   Please cite Q-Chem as follows:
  "Software for the frontiers of quantum chemistry:
   An overview of developments in the Q-Chem 5 package"
   J. Chem. Phys. 155, 084801 (2021)
   https://doi.org/10.1063/5.0055522 (open access)

 Q-Chem 5.4.2 for Intel X86 EM64T Linux

 Parts of Q-Chem use Armadillo 9.900.5 (Nocturnal Misbehaviour).
 http://arma.sourceforge.net/

 Q-Chem begins on Fri Feb 28 20:35:37 2025  

 Host: 
0

     Scratch files written to /scratch/qchem149900//
 Dec1321 |scratch|qcdevops|jenkins|workspace|build_RNUM 5684   
 Processing $rem in /home/kchung25/qchem/5.4.0/config/preferences:
 Processing $rem in /home/kchung25/.qchemrc:

 Q-Chem warning in module libgen/rem_setup.C, line 3079:

 Neither GIA nor STOLL is specified by user. Use STOLL as the default


 Checking the input file for inconsistencies... 	...done.

--------------------------------------------------------------
User input:
--------------------------------------------------------------
$molecule
0 1
--
0 1
C   -1.309712  -0.853776   0.863334
C   -1.701819  -0.227589  -0.444987
O   -2.876766   0.525994  -0.229083
H   -3.094015   0.998003  -1.034725
H   -0.412837  -1.466231   0.745249
H   -2.112986  -1.486037   1.246490
H   -1.103432  -0.080066   1.606280
H   -1.872359  -1.011301  -1.198893
H   -0.881844   0.407298  -0.806420
--
0 1
C    2.279357  -0.789068  -0.713279
C    2.149938   0.140264   0.460358
O    1.374803   1.246626   0.053159
H    1.239156   1.830443   0.801993
H    2.883538  -1.660403  -0.456081
H    2.749795  -0.277405  -1.554771
H    1.294997  -1.135167  -1.037562
H    3.144919   0.462465   0.799465
H    1.674180  -0.381532   1.303808
$end

$rem
JOBTYPE          eda
EDA2             1
METHOD           wB97M-V
BASIS            def2-TZVPPD
SYMMETRY         false
MEM_TOTAL        50000
MEM_STATIC       10000
THRESH           14
SCF_CONVERGENCE  8
XC_GRID          000099000590
NL_GRID          1
EDA_CLS_DISP     true
FD_MAT_VEC_PROD  FALSE
$end
--------------------------------------------------------------
 ----------------------------------------------------------------
             Standard Nuclear Orientation (Angstroms)
    I     Atom           X                Y                Z
 ----------------------------------------------------------------
    1      C      -1.3097118720    -0.8537760504     0.8633342158
    2      C      -1.7018188462    -0.2275893054    -0.4449869139
    3      O      -2.8767658333     0.5259937614    -0.2290830773
    4      H      -3.0940148157     0.9980026040    -1.0347251743
    5      H      -0.4128368830    -1.4662310921     0.7452493480
    6      H      -2.1129858886    -1.4860369574     1.2464903346
    7      H      -1.1034318641    -0.0800659053     1.6062800625
    8      H      -1.8723588541    -1.0113014534    -1.1988927583
    9      H      -0.8818438298     0.4072976056    -0.8064200331
   10      C       2.2793571454    -0.7890684388    -0.7132787606
   11      C       2.1499381520     0.1402637995     0.4603580514
   12      O       1.3748031782     1.2466257332     0.0531588213
   13      H       1.2391561822     1.8304428863     0.8019927026
   14      H       2.8835381253    -1.6604033992    -0.4560805794
   15      H       2.7497951642    -0.2774056172    -1.5547708585
   16      H       1.2949971418    -1.1351674843    -1.0375617011
   17      H       3.1449191549     0.4624648478     0.7994649969
   18      H       1.6741801329    -0.3815320215     1.3038081514
 ----------------------------------------------------------------
 Molecular Point Group                 C1    NOp =  1
 Largest Abelian Subgroup              C1    NOp =  1
 Nuclear Repulsion Energy =         252.17833472 hartrees
 There are       26 alpha and       26 beta electrons
 Requested basis set is def2-TZVPPD
 There are 164 shells and 432 basis functions

 Q-Chem warning in module libmdc/get_mega.C, line 171:

 Allowed MEM_STATIC has been capped at MEM_STATIC=8191.
 Reduce the value of MEM_STATIC to silence this warning.


 Total QAlloc Memory Limit  50000 MB
 Mega-Array Size      8007 MB
 MEM_STATIC part      8191 MB
 A cutoff of  1.0D-14 yielded  12490 shell pairs
 There are     86152 function pairs (    105958 Cartesian)
 Smallest overlap matrix eigenvalue = 7.14E-06

 Scale SEOQF with 1.000000e-01/1.000000e-01/1.000000e-01

 Standard Electronic Orientation quadrupole field applied
 Nucleus-field energy     =     0.0000000078 hartrees

 -----------------------------------------------------------------------
  General SCF calculation program by
  Eric Jon Sundstrom, Paul Horn, Yuezhi Mao, Dmitri Zuev, Alec White,
  David Stuck, Shaama M.S., Shane Yost, Joonho Lee, David Small,
  Daniel Levine, Susi Lehtola, Hugh Burton, Evgeny Epifanovsky,
  Bang C. Huynh
 -----------------------------------------------------------------------
================================================================
                 ALMO-EDA with the EDA2 driver                  
================================================================
 The second-generation ALMO-EDA (for DFT):                      
 P. R. Horn, Y. Mao and M. Head-Gordon, PCCP, 18, 23067 (2016)  
 Y. Mao et al. Annu. Rev. Phys. Chem. 72, 641 (2021)            
 Decomposition of the frozen energy:                            
 P. R. Horn, Y. Mao and M. Head-Gordon, JCP, 144, 114107 (2016) 
 FERF model for polarization:                                   
 P. R. Horn and M. Head-Gordon, JCP, 143, 114111 (2015)         
================================================================
 Using eda2 option set 1
 Option set summary: Frozen orbital wavefunction, initial wavefunction decomposition, and nDQ polarization.
--------------------------------
Printing EDA Options
--------------------------------
eda_child_super_basis      0
fragmo_guess_mode          0
child_mp                   1
child_mp_orders            232
cls_elec                   1
cls_disp                   1
scfmi_mode                 1
scfmi_occs                 0
scfmi_virts                0
frz_relax                  0
frz_relax_method           0
dc_pen_start               0
dc_pen_conv                0
dc_pen_increment           0
dc_pen_steps               0
dc_pen_thresh_factor       0
dc_pen_pre_newton_thresh   0
frz_ortho_decomp           1
frz_ortho_decomp_conv      6
plot_mo_ortho_frz          0
frgm_method                2
scfmi_freeze_ss            0
separate_rehyb             0
plot_diff_den              0
eda_nocv                   0
eda_vct_relax              1
disp_free_x                0
disp_free_c                0
eda_bsse                   0
eda_pct_a                  0
eda_covp                   0
--------------------------------
Attempting to make child job directory: /scratch/qchem149900//Frg1/
Attempting to make child job directory: /scratch/qchem149900//Frg2/
Creating input file /scratch/qchem149900/Frg1.input
using default PutDataFrgm: nothing
calling putenv with: QCSCRATCH=/scratch/qchem149900/ 
Spawning Job For Fragment 0
Done Job For Fragment 0
calling putenv with: QCSCRATCH=/scratch 
calling putenv with: QCTHREADS=6 
Creating input file /scratch/qchem149900/Frg2.input
using default PutDataFrgm: nothing
calling putenv with: QCSCRATCH=/scratch/qchem149900/ 
Spawning Job For Fragment 1
Done Job For Fragment 1
calling putenv with: QCSCRATCH=/scratch 
calling putenv with: QCTHREADS=6 
Doing General SCFMI
 Exchange:     0.1500 Hartree-Fock + 1.0000 wB97M-V + LR-HF
 Correlation:  1.0000 wB97M-V
 Using Euler-Maclaurin-Lebedev (99,590) quadrature formula
 Nonlocal Correlation:  VV10 with C = 0.0100 and b = 6.00 and scale = 1.00000
 Grid used for NLC:  SG-1 standard quadrature
performing fock build before subrot guess so that all methods have access
Printing subrot_rss_gen Method Specification:
Occupied Subspace Method is 0
Virtual Subspace Method is 0
Energy of the unrelaxed supersystem initial determinant -310.060930777901
write pseudocanon occs and virts to disk
write pseudocanon orbital energies to disk
Tolerance of ortho_decomp_scf: 1.00e-06
GDM subspace size: 20
Beginning the Orthogonal Decomposition of the Initial Supersystem Wavefunction
    1    -310.0377946163      5.43e-02     ortho_decomp Preconditoned Steepest Descent
    2    -310.0411603602      1.66e-03     ortho_decomp BFGS Step
    3    -310.0411753562      1.13e-04     ortho_decomp BFGS Step
    4    -310.0411753712      4.23e-06     ortho_decomp BFGS Step
    5    -310.0411753713      1.51e-07     ortho_decomp 00000 Convergence criterion met
 Hartree-Fock
 Hartree-Fock
 Hartree-Fock
 Exchange:     0.1500 Hartree-Fock + 1.0000 wB97M-V + LR-HF
 Correlation:  1.0000 wB97M-V
 Using Euler-Maclaurin-Lebedev (99,590) quadrature formula
 Nonlocal Correlation:  VV10 with C = 0.0100 and b = 6.00 and scale = 1.00000
 Grid used for NLC:  SG-1 standard quadrature
 Long-range K will be added via erf
 Coulomb attenuation parameter = 0.3 bohr**(-1)
 Nonlocal correlation = 2.041351900526e-01
Doing General SCFMI
 Exchange:     0.1500 Hartree-Fock + 1.0000 wB97M-V + LR-HF
 Correlation:  1.0000 wB97M-V
 Using Euler-Maclaurin-Lebedev (99,590) quadrature formula
 Nonlocal Correlation:  VV10 with C = 0.0100 and b = 6.00 and scale = 1.00000
 Grid used for NLC:  SG-1 standard quadrature
performing fock build at end of subrot_r(subrot) constructor so that all methods have access
<S^2> of initial wavefunction before polarization iterations 0.0000000000
Beginning iterations for the determination of the polarized wavefunction
Energy prior to optimization (guess energy) = -310.060930777901
Begin Timing: Total SCF Calculation
begin iterations for algorithm: DIIS         
the SCF tolerance is set to 1.00e-08
    1    -310.0609307779      1.29e-04     00000 
    2    -310.0614414950      5.28e-05     00000 
    3    -310.0614884705      3.22e-05     00000 
    4    -310.0615043273      9.37e-06     00000 
    5    -310.0615063746      3.65e-06     00000 
    6    -310.0615068591      1.52e-06     00000 
    7    -310.0615069412      5.18e-07     00000 
    8    -310.0615069512      1.66e-07     00000 
    9    -310.0615069517      9.95e-08     00000 
   10    -310.0615069518      3.61e-08     00000 
   11    -310.0615069518      1.52e-08     00000 
   12    -310.0615069518      6.09e-09     00000 Convergence criterion met
write pseudocanon occs and virts to disk
write pseudocanon orbital energies to disk
Timing for Total SCF: 288.00s (wall), 1730.46s (cpu)
<S^2> of polarized wavefunction after polarization iterations 0.0000000000
relaxing scfmi constraint to allow all rotations in the entire AO span
Doing General SCFMI
 Exchange:     0.1500 Hartree-Fock + 1.0000 wB97M-V + LR-HF
 Correlation:  1.0000 wB97M-V
 Using Euler-Maclaurin-Lebedev (99,590) quadrature formula
 Nonlocal Correlation:  VV10 with C = 0.0100 and b = 6.00 and scale = 1.00000
 Grid used for NLC:  SG-1 standard quadrature
performing fock build at end of subrot_r(subrot) constructor so that all methods have access
<S^2> of polarized wavefunction before ct-allowed iterations 0.0000000000
Beginning iterations for the determination of the CT-Allowed wavefunction
Energy prior to optimization (guess energy) = -310.061506951806
Begin Timing: Total SCF Calculation
begin iterations for algorithm: DIIS         
the SCF tolerance is set to 1.00e-08
    1    -310.0615069518      8.66e-05     00000 
    2    -310.0622765460      1.00e-05     00000 
    3    -310.0622982322      2.33e-06     00000 
    4    -310.0622987452      1.86e-06     00000 
    5    -310.0622989808      2.60e-07     00000 
    6    -310.0622989872      9.80e-08     00000 
    7    -310.0622989884      2.19e-08     00000 
    8    -310.0622989885      4.89e-09     00000 Convergence criterion met
write pseudocanon occs and virts to disk
write pseudocanon orbital energies to disk
Timing for Total SCF: 185.00s (wall), 1111.63s (cpu)
<S^2> of ct_allowed wavefunction after ct-allowed iterations 0.0000000000

================================
        Results of EDA2         
================================
Basic EDA Quantities
--------------------
Fragment Energies (Ha):
1 -155.0295634678
2 -155.0295939407
--------------------
  E_prp (kJ/mol) = 0.0000
  E_frz (kJ/mol) = -4.6560
  E_pol (kJ/mol) = -1.5128
  E_vct (kJ/mol) = -2.0795
  E_int (kJ/mol) = -8.2483
--------------------


Decomposition of frozen interaction energy
--------------------
  --------------------
  Orthogonal Frozen Decomposition:
  --------------------
     E_elec   (ELEC)   (kJ/mol) = -25.8555
     E_pauli  (PAULI)  (kJ/mol) = 36.1992
     E_disp   (DISP)   (kJ/mol) = -14.9998
  --------------------
  Classical Frozen Decomposition:
  --------------------
     E_cls_elec  (CLS ELEC)  (kJ/mol) = -9.7679
     E_mod_pauli (MOD PAULI) (kJ/mol) = 18.3193 (FRZ - CLS ELEC - CLS DISP)
     E_cls_disp  (CLS DISP)  (kJ/mol) = -13.2074
  --------------------
--------------------

Simplified EDA Summary (kJ/mol)
--------------------
 PREPARATION      0.0000
 FROZEN           -4.6560 (ELEC + PAULI + DISP)
[ELEC + PAULI = 8.5513, DISP = -13.2074]
 POLARIZATION    -1.5128
 CHARGE TRANSFER -2.0795
 TOTAL           -8.2483     (PRP + FRZ + POL + CT)
--------------------
 
 --------------------------------------------------------------
 
                    Orbital Energies (a.u.)
 --------------------------------------------------------------
 
 Alpha MOs
 -- Occupied --
-19.3360 -19.3243 -10.3902 -10.3758 -10.3320 -10.3233  -1.1577  -1.1452
 -0.8780  -0.8668  -0.7312  -0.7191  -0.6366  -0.6247  -0.5838  -0.5665
 -0.5169  -0.5055  -0.4887  -0.4795  -0.4710  -0.4605  -0.4423  -0.4279
 -0.3855  -0.3682
 -- Virtual --
  0.0319   0.0443   0.0539   0.0586   0.0734   0.0844   0.0908   0.0945
  0.1125   0.1203   0.1259   0.1316   0.1468   0.1572   0.1611   0.1662
  0.1733   0.1782   0.1842   0.1873   0.2066   0.2135   0.2171   0.2224
  0.2388   0.2428   0.2513   0.2661   0.2740   0.2753   0.2796   0.2859
  0.2910   0.2946   0.3005   0.3037   0.3061   0.3129   0.3181   0.3229
  0.3295   0.3371   0.3393   0.3462   0.3478   0.3509   0.3574   0.3612
  0.3655   0.3738   0.3779   0.3795   0.3836   0.3919   0.3994   0.4039
  0.4173   0.4213   0.4241   0.4320   0.4441   0.4492   0.4510   0.4562
  0.4599   0.4704   0.4727   0.4757   0.4896   0.4947   0.5015   0.5058
  0.5165   0.5198   0.5317   0.5367   0.5444   0.5466   0.5553   0.5666
  0.5697   0.5743   0.5831   0.5956   0.6172   0.6227   0.6284   0.6370
  0.6498   0.6629   0.6690   0.6732   0.6938   0.7008   0.7031   0.7089
  0.7215   0.7317   0.7429   0.7466   0.7515   0.7537   0.7579   0.7690
  0.7714   0.7793   0.7825   0.7964   0.8037   0.8193   0.8229   0.8342
  0.8382   0.8483   0.8554   0.8588   0.8873   0.8983   0.9036   0.9338
  0.9464   0.9603   0.9708   1.0037   1.0084   1.0148   1.0253   1.0386
  1.0500   1.0648   1.0857   1.0964   1.1097   1.1166   1.1396   1.1631
  1.1775   1.2032   1.2108   1.2234   1.2389   1.2414   1.2527   1.2580
  1.2689   1.2757   1.2917   1.3060   1.3086   1.3311   1.3366   1.3503
  1.3566   1.3643   1.3844   1.3912   1.4030   1.4257   1.4296   1.4468
  1.4499   1.4701   1.4911   1.5035   1.5183   1.5267   1.5381   1.5504
  1.5824   1.6073   1.6279   1.6384   1.6475   1.6647   1.6707   1.6919
  1.7061   1.7224   1.7283   1.7464   1.7523   1.7692   1.7941   1.8132
  1.8457   1.8559   1.9332   1.9582   1.9800   1.9950   2.0225   2.0376
  2.0716   2.1029   2.1199   2.1411   2.1457   2.1885   2.2537   2.2711
  2.2817   2.2998   2.3445   2.3679   2.4040   2.4125   2.4331   2.4514
  2.5192   2.5278   2.6893   2.7106   2.7237   2.7444   2.7635   2.8237
  2.8407   2.8736   2.8882   2.9039   2.9156   2.9173   2.9333   2.9517
  2.9581   2.9706   2.9744   3.0004   3.0061   3.0136   3.0388   3.0476
  3.0637   3.0783   3.0802   3.1023   3.1387   3.1583   3.1695   3.1795
  3.1985   3.2193   3.2222   3.2301   3.2578   3.2670   3.2740   3.2849
  3.2856   3.3017   3.3129   3.3216   3.3270   3.3549   3.3833   3.3972
  3.4274   3.4409   3.4730   3.4863   3.5204   3.5280   3.5422   3.5625
  3.5661   3.5850   3.5853   3.6073   3.6198   3.6344   3.6537   3.6607
  3.6972   3.7132   3.7226   3.7461   3.7768   3.7836   3.7889   3.7992
  3.8355   3.8575   3.9096   3.9202   3.9315   3.9408   3.9932   4.0033
  4.0128   4.0236   4.0426   4.0548   4.0821   4.0922   4.1001   4.1042
  4.1157   4.1308   4.1440   4.1524   4.1563   4.1701   4.1964   4.2067
  4.2249   4.2557   4.2597   4.2708   4.2851   4.2991   4.3236   4.3369
  4.3407   4.3539   4.3790   4.3835   4.4021   4.4365   4.4618   4.4839
  4.5065   4.5107   4.5156   4.5401   4.5720   4.5804   4.5917   4.6223
  4.6599   4.6671   4.6907   4.6926   4.7132   4.7378   4.8253   4.8495
  4.8594   4.8775   4.9423   4.9530   4.9548   4.9565   4.9723   4.9925
  5.0135   5.0322   5.0400   5.0645   5.1234   5.1298   5.2538   5.2698
  5.3018   5.3138   5.3220   5.3342   5.4108   5.4195   5.4283   5.4357
  5.4380   5.4600   5.4687   5.4946   5.5220   5.5468   5.5718   5.5744
  5.6352   5.6502   5.6544   5.6978   5.7500   5.7762   5.8002   5.8130
  5.8230   5.8489   5.9605   5.9678   6.1158   6.1234   6.2562   6.2603
  6.6831   6.6847   6.8225   6.8445   6.8767   6.8882   6.9569   6.9648
  7.0553   7.0794   7.3680   7.3743   7.5604   7.5658   7.7877   7.7982
 23.7626  23.7798  24.0698  24.1373  44.8098  44.8567
 --------------------------------------------------------------
 
          Ground-State Mulliken Net Atomic Charges

     Atom                 Charge (a.u.)
  ----------------------------------------
      1 C                    -0.865678
      2 C                    -0.163007
      3 O                    -0.398315
      4 H                     0.127701
      5 H                     0.214323
      6 H                     0.330656
      7 H                     0.210837
      8 H                     0.277857
      9 H                     0.251978
     10 C                    -0.948930
     11 C                    -0.236393
     12 O                    -0.381633
     13 H                     0.129314
     14 H                     0.290812
     15 H                     0.302350
     16 H                     0.205586
     17 H                     0.363337
     18 H                     0.289205
  ----------------------------------------
  Sum of atomic charges =     0.000000

 -----------------------------------------------------------------
                    Cartesian Multipole Moments
 -----------------------------------------------------------------
    Charge (ESU x 10^10)
                 0.0000
    Dipole Moment (Debye)
         X       1.6015      Y      -0.1437      Z       0.0484
       Tot       1.6087
    Quadrupole Moments (Debye-Ang)
        XX     -43.1208     XY      -0.9875     YY     -38.9749
        XZ       5.9907     YZ       1.0687     ZZ     -38.0556
    Octopole Moments (Debye-Ang^2)
       XXX      15.5699    XXY       3.9530    XYY      -3.7587
       YYY      13.4145    XXZ     -11.1722    XYZ       8.6601
       YYZ       3.2341    XZZ      -5.9794    YZZ       7.3834
       ZZZ      -2.2288
    Hexadecapole Moments (Debye-Ang^3)
      XXXX   -1097.7828   XXXY     -15.3712   XXYY    -200.6769
      XYYY      -1.0156   YYYY    -200.3878   XXXZ      50.5464
      XXYZ     -14.4218   XYYZ      15.7851   YYYZ       8.2307
      XXZZ    -184.8104   XYZZ      -1.6078   YYZZ     -57.3006
      XZZZ      13.1948   YZZZ       0.5279   ZZZZ    -163.0270
 -----------------------------------------------------------------
 Total job time:  1497.68s(wall), 5522.65s(cpu) 
 Fri Feb 28 21:00:34 2025

        *************************************************************
        *                                                           *
        *  Thank you very much for using Q-Chem.  Have a nice day.  *
        *                                                           *
        *************************************************************


