
Running Job 1 of 1 004_ethanol_dimer_04_almo.inp
qchem 004_ethanol_dimer_04_almo.inp_93850.0 /scratch/qchem93850/ 6
/home/kchung25/qchem/5.4.0/exe/qcprog.exe_s 004_ethanol_dimer_04_almo.inp_93850.0 /scratch/qchem93850/
                  Welcome to Q-Chem
     A Quantum Leap Into The Future Of Chemistry


 Q-Chem 5.4, Q-Chem, Inc., Pleasanton, CA (2021)

 E. Epifanovsky,  A. T. B. Gilbert,  Xintian Feng,  Joonho Lee,  Yuezhi Mao,  
 N. Mardirossian,  P. Pokhilko,  A. White,  M. Wormit,  M. P. Coons,  
 A. L. Dempwolff,  Zhengting Gan,  D. Hait,  P. R. Horn,  L. D. Jacobson,  
 I. Kaliman,  J. Kussmann,  A. W. Lange,  Ka Un Lao,  D. S. Levine,  Jie Liu,  
 S. C. McKenzie,  A. F. Morrison,  K. Nanda,  F. Plasser,  D. R. Rehn,  
 M. L. Vidal,  Zhi-Qiang You,  Ying Zhu,  B. Alam,  B. Albrecht,  
 A. Aldossary,  E. Alguire,  J. H. Andersen,  D. Barton,  K. Begam,  A. Behn,  
 Y. A. Bernard,  E. J. Berquist,  H. Burton,  A. Carreras,  K. Carter-Fenk,  
 Romit Chakraborty,  A. D. Chien,  K. D. Closser,  V. Cofer-Shabica,  
 S. Dasgupta,  Jia Deng,  M. de Wergifosse,  M. Diedenhofen,  Hainam Do,  
 S. Ehlert,  Po-Tung Fang,  S. Fatehi,  Qingguo Feng,  T. Friedhoff,  
 J. Gayvert,  Qinghui Ge,  G. Gidofalvi,  M. Goldey,  J. Gomes,  
 C. Gonzalez-Espinoza,  S. Gulania,  A. Gunina,  M. W. D. Hanson-Heine,  
 P. H. P. Harbach,  A. W. Hauser,  M. F. Herbst,  M. Hernandez Vera,  
 M. Hodecker,  Z. C. Holden,  S. Houck,  Xunkun Huang,  Kerwin Hui,  
 B. C. Huynh,  M. Ivanov,  Hyunjun Ji,  Hanjie Jiang,  B. Kaduk,  S. Kaehler,  
 K. Khistyaev,  Jaehoon Kim,  P. Klunzinger,  Z. Koczor-Benda,  
 Joong Hoon Koh,  D. Kosenkov,  L. Koulias,  T. Kowalczyk,  C. M. Krauter,  
 K. Kue,  A. Kunitsa,  T. Kus,  A. Landau,  K. V. Lawler,  D. Lefrancois,  
 S. Lehtola,  Rain Li,  Yi-Pei Li,  Jiashu Liang,  M. Liebenthal,  
 Hung-Hsuan Lin,  You-Sheng Lin,  Fenglai Liu,  Kuan-Yu Liu,  
 M. Loipersberger,  A. Luenser,  A. Manjanath,  P. Manohar,  E. Mansoor,  
 S. F. Manzer,  Shan-Ping Mao,  A. V. Marenich,  T. Markovich,  S. Mason,  
 S. A. Maurer,  P. F. McLaughlin,  M. F. S. J. Menger,  J.-M. Mewes,  
 S. A. Mewes,  P. Morgante,  J. W. Mullinax,  K. J. Oosterbaan,  G. Paran,  
 Alexander C. Paul,  Suranjan K. Paul,  F. Pavosevic,  Zheng Pei,  S. Prager,  
 E. I. Proynov,  E. Ramos,  B. Rana,  A. E. Rask,  A. Rettig,  R. M. Richard,  
 F. Rob,  E. Rossomme,  T. Scheele,  M. Scheurer,  M. Schneider,  
 N. Sergueev,  S. M. Sharada,  W. Skomorowski,  D. W. Small,  C. J. Stein,  
 Yu-Chuan Su,  E. J. Sundstrom,  Zhen Tao,  J. Thirman,  T. Tsuchimochi,  
 N. M. Tubman,  S. P. Veccham,  O. Vydrov,  J. Wenzel,  J. Witte,  A. Yamada,  
 Kun Yao,  S. Yeganeh,  S. R. Yost,  A. Zech,  Igor Ying Zhang,  Xing Zhang,  
 Yu Zhang,  D. Zuev,  A. Aspuru-Guzik,  A. T. Bell,  N. A. Besley,  
 K. B. Bravaya,  B. R. Brooks,  D. Casanova,  Jeng-Da Chai,  S. Coriani,  
 C. J. Cramer,  A. E. DePrince, III,  R. A. DiStasio Jr.,  A. Dreuw,  
 B. D. Dunietz,  T. R. Furlani,  W. A. Goddard III,  S. Grimme,  
 S. Hammes-Schiffer,  T. Head-Gordon,  W. J. Hehre,  Chao-Ping Hsu,  
 T.-C. Jagau,  Yousung Jung,  A. Klamt,  Jing Kong,  D. S. Lambrecht,  
 WanZhen Liang,  N. J. Mayhall,  C. W. McCurdy,  J. B. Neaton,  T. Neudecker,  
 C. Ochsenfeld,  J. A. Parkhill,  R. Peverati,  V. A. Rassolov,  Yihan Shao,  
 L. V. Slipchenko,  R. P. Steele,  J. E. Subotnik,  A. J. W. Thom,  
 A. Tkatchenko,  D. G. Truhlar,  T. Van Voorhis,  T. A. Wesolowski,  
 K. B. Whaley,  H. L. Woodcock III,  P. M. Zimmerman,  S. Faraji,  
 P. M. W. Gill,  M. Head-Gordon,  J. M. Herbert,  A. I. Krylov

 Additional authors since Version 5.4.0: 
 Chandrima Chakravarty,  L. Cunha,  R. Kang,  Yongbin Kim,  S. Kotaru,  
 Shaozhi Li,  Xiangyuan Li,  F. Matz,  A. Molle,  V. Parravicini,  
 Haisheng Ren,  Hengyuan Shen,  Yingli Su,  Hung-Yi Tsai,  C. Utku,  
 Fang Wang,  Jeff Yang,  F. Zeller

 Contributors to earlier versions of Q-Chem not listed above: 
 R. D. Adamson,  B. Austin,  R. Baer,  J. Baker,  G. J. O. Beran,  
 K. Brandhorst,  S. T. Brown,  E. F. C. Byrd,  Arup K. Chakraborty,  
 G. K. L. Chan,  Chun-Min Chang,  Yunqing Chen,  C.-L. Cheng,  
 Siu Hung Chien,  D. M. Chipman,  D. L. Crittenden,  H. Dachsel,  
 R. J. Doerksen,  A. D. Dutoi,  R. G. Edgar,  J. Fosso-Tande,  
 L. Fusti-Molnar,  D. Ghosh,  A. Ghysels,  A. Golubeva-Zadorozhnaya,  
 J. Gonthier,  M. S. Gordon,  S. R. Gwaltney,  G. Hawkins,  J. E. Herr,  
 A. Heyden,  S. Hirata,  E. G. Hohenstein,  G. Kedziora,  F. J. Keil,  
 C. Kelley,  Jihan Kim,  R. A. King,  R. Z. Khaliullin,  P. P. Korambath,  
 W. Kurlancheek,  A. Laurent,  A. M. Lee,  M. S. Lee,  S. V. Levchenko,  
 Ching Yeh Lin,  D. Liotard,  E. Livshits,  R. C. Lochan,  I. Lotan,  
 L. A. Martinez-Martinez,  P. E. Maslen,  N. Nair,  D. P. O'Neill,  
 D. Neuhauser,  E. Neuscamman,  C. M. Oana,  R. Olivares-Amaya,  R. Olson,  
 T. M. Perrine,  B. Peters,  P. A. Pieniazek,  A. Prociuk,  Y. M. Rhee,  
 J. Ritchie,  M. A. Rohrdanz,  E. Rosta,  N. J. Russ,  H. F. Schaefer III,  
 M. W. Schmidt,  N. E. Schultz,  S. Sharma,  N. Shenvi,  C. D. Sherrill,  
 A. C. Simmonett,  A. Sodt,  T. Stein,  D. Stuck,  K. S. Thanthiriwatte,  
 V. Vanovschi,  L. Vogt,  Tao Wang,  A. Warshel,  M. A. Watson,  
 C. F. Williams,  Q. Wu,  X. Xu,  Jun Yang,  W. Zhang,  Yan Zhao

   Please cite Q-Chem as follows:
  "Software for the frontiers of quantum chemistry:
   An overview of developments in the Q-Chem 5 package"
   J. Chem. Phys. 155, 084801 (2021)
   https://doi.org/10.1063/5.0055522 (open access)

 Q-Chem 5.4.2 for Intel X86 EM64T Linux

 Parts of Q-Chem use Armadillo 9.900.5 (Nocturnal Misbehaviour).
 http://arma.sourceforge.net/

 Q-Chem begins on Fri Feb 28 00:48:16 2025  

 Host: 
0

     Scratch files written to /scratch/qchem93850//
 Dec1321 |scratch|qcdevops|jenkins|workspace|build_RNUM 5684   
 Processing $rem in /home/kchung25/qchem/5.4.0/config/preferences:
 Processing $rem in /home/kchung25/.qchemrc:

 Q-Chem warning in module libgen/rem_setup.C, line 3079:

 Neither GIA nor STOLL is specified by user. Use STOLL as the default


 Checking the input file for inconsistencies... 	...done.

--------------------------------------------------------------
User input:
--------------------------------------------------------------
$molecule
0 1
--
0 1
C    2.380420   1.099443  -0.153296
C    1.968206  -0.101300   0.656339
O    1.482200  -1.158100  -0.156642
H    2.162096  -1.396010  -0.792774
H    2.728678   1.905816   0.494852
H    1.537414   1.468596  -0.740638
H    3.197024   0.849300  -0.837255
H    1.142953   0.153809   1.325995
H    2.794870  -0.457704   1.284110
--
0 1
C   -3.074330   0.469154   0.266295
C   -1.887023  -0.446254   0.149997
O   -0.976330   0.118321  -0.758439
H   -0.171906  -0.421713  -0.755292
H   -3.817331   0.064265   0.955672
H   -3.545282   0.603664  -0.709441
H   -2.764939   1.452055   0.627231
H   -2.213377  -1.442299  -0.185903
H   -1.420797  -0.587804   1.138083
$end

$rem
JOBTYPE          eda
EDA2             1
METHOD           wB97M-V
BASIS            def2-TZVPPD
SYMMETRY         false
MEM_TOTAL        50000
MEM_STATIC       10000
THRESH           14
SCF_CONVERGENCE  8
XC_GRID          000099000590
NL_GRID          1
EDA_CLS_DISP     true
FD_MAT_VEC_PROD  FALSE
$end
--------------------------------------------------------------
 ----------------------------------------------------------------
             Standard Nuclear Orientation (Angstroms)
    I     Atom           X                Y                Z
 ----------------------------------------------------------------
    1      C       2.3804200189    -1.0994428716     0.1532962285
    2      C       1.9682059400     0.1012998759    -0.6563391058
    3      O       1.4821999590     1.1581001054     0.1566416071
    4      H       2.1620959895     1.3960103133     0.7927734968
    5      H       2.7286780029    -1.9058160557    -0.4948515511
    6      H       1.5374140628    -1.4685957189     0.7406383875
    7      H       3.1970240519    -0.8492996459     0.8372551066
    8      H       1.1429529080    -0.1538093459    -1.3259949819
    9      H       2.7948698942     0.4577037106    -1.2841102600
   10      C      -3.0743300222    -0.4691541421    -0.2662946435
   11      C      -1.8870230398     0.4462539242    -0.1499969853
   12      O      -0.9763299721    -0.1183207805     0.7584391303
   13      H      -0.1719059867     0.4217132400     0.7552919226
   14      H      -3.8173310729    -0.0642653675    -0.9556717212
   15      H      -3.5452819620    -0.6036638636     0.7094414239
   16      H      -2.7649390169    -1.4520552415    -0.6272303682
   17      H      -2.2133770469     1.4422990157     0.1859027365
   18      H      -1.4207971008     0.5878036419    -1.1380830546
 ----------------------------------------------------------------
 Molecular Point Group                 C1    NOp =  1
 Largest Abelian Subgroup              C1    NOp =  1
 Nuclear Repulsion Energy =         254.77254320 hartrees
 There are       26 alpha and       26 beta electrons
 Requested basis set is def2-TZVPPD
 There are 164 shells and 432 basis functions

 Q-Chem warning in module libmdc/get_mega.C, line 171:

 Allowed MEM_STATIC has been capped at MEM_STATIC=8191.
 Reduce the value of MEM_STATIC to silence this warning.


 Total QAlloc Memory Limit  50000 MB
 Mega-Array Size      8007 MB
 MEM_STATIC part      8191 MB
 A cutoff of  1.0D-14 yielded  12249 shell pairs
 There are     84281 function pairs (    103666 Cartesian)
 Smallest overlap matrix eigenvalue = 9.08E-06

 Scale SEOQF with 1.000000e-01/1.000000e-01/1.000000e-01

 Standard Electronic Orientation quadrupole field applied
 Nucleus-field energy     =     0.0000000090 hartrees

 -----------------------------------------------------------------------
  General SCF calculation program by
  Eric Jon Sundstrom, Paul Horn, Yuezhi Mao, Dmitri Zuev, Alec White,
  David Stuck, Shaama M.S., Shane Yost, Joonho Lee, David Small,
  Daniel Levine, Susi Lehtola, Hugh Burton, Evgeny Epifanovsky,
  Bang C. Huynh
 -----------------------------------------------------------------------
================================================================
                 ALMO-EDA with the EDA2 driver                  
================================================================
 The second-generation ALMO-EDA (for DFT):                      
 P. R. Horn, Y. Mao and M. Head-Gordon, PCCP, 18, 23067 (2016)  
 Y. Mao et al. Annu. Rev. Phys. Chem. 72, 641 (2021)            
 Decomposition of the frozen energy:                            
 P. R. Horn, Y. Mao and M. Head-Gordon, JCP, 144, 114107 (2016) 
 FERF model for polarization:                                   
 P. R. Horn and M. Head-Gordon, JCP, 143, 114111 (2015)         
================================================================
 Using eda2 option set 1
 Option set summary: Frozen orbital wavefunction, initial wavefunction decomposition, and nDQ polarization.
--------------------------------
Printing EDA Options
--------------------------------
eda_child_super_basis      0
fragmo_guess_mode          0
child_mp                   1
child_mp_orders            232
cls_elec                   1
cls_disp                   1
scfmi_mode                 1
scfmi_occs                 0
scfmi_virts                0
frz_relax                  0
frz_relax_method           0
dc_pen_start               0
dc_pen_conv                0
dc_pen_increment           0
dc_pen_steps               0
dc_pen_thresh_factor       0
dc_pen_pre_newton_thresh   0
frz_ortho_decomp           1
frz_ortho_decomp_conv      6
plot_mo_ortho_frz          0
frgm_method                2
scfmi_freeze_ss            0
separate_rehyb             0
plot_diff_den              0
eda_nocv                   0
eda_vct_relax              1
disp_free_x                0
disp_free_c                0
eda_bsse                   0
eda_pct_a                  0
eda_covp                   0
--------------------------------
Attempting to make child job directory: /scratch/qchem93850//Frg1/
Attempting to make child job directory: /scratch/qchem93850//Frg2/
Creating input file /scratch/qchem93850/Frg1.input
using default PutDataFrgm: nothing
calling putenv with: QCSCRATCH=/scratch/qchem93850/ 
Spawning Job For Fragment 0
Done Job For Fragment 0
calling putenv with: QCSCRATCH=/scratch 
calling putenv with: QCTHREADS=6 
Creating input file /scratch/qchem93850/Frg2.input
using default PutDataFrgm: nothing
calling putenv with: QCSCRATCH=/scratch/qchem93850/ 
Spawning Job For Fragment 1
Done Job For Fragment 1
calling putenv with: QCSCRATCH=/scratch 
calling putenv with: QCTHREADS=6 
Doing General SCFMI
 Exchange:     0.1500 Hartree-Fock + 1.0000 wB97M-V + LR-HF
 Correlation:  1.0000 wB97M-V
 Using Euler-Maclaurin-Lebedev (99,590) quadrature formula
 Nonlocal Correlation:  VV10 with C = 0.0100 and b = 6.00 and scale = 1.00000
 Grid used for NLC:  SG-1 standard quadrature
performing fock build before subrot guess so that all methods have access
Printing subrot_rss_gen Method Specification:
Occupied Subspace Method is 0
Virtual Subspace Method is 0
Energy of the unrelaxed supersystem initial determinant -310.062610334338
write pseudocanon occs and virts to disk
write pseudocanon orbital energies to disk
Tolerance of ortho_decomp_scf: 1.00e-06
GDM subspace size: 20
Beginning the Orthogonal Decomposition of the Initial Supersystem Wavefunction
    1    -310.0111538293      9.53e-02     ortho_decomp Preconditoned Steepest Descent
    2    -310.0176972841      2.08e-03     ortho_decomp BFGS Step
    3    -310.0177164164      1.61e-04     ortho_decomp BFGS Step
    4    -310.0177164428      5.32e-06     ortho_decomp BFGS Step
    5    -310.0177164429      1.48e-07     ortho_decomp 00000 Convergence criterion met
 Hartree-Fock
 Hartree-Fock
 Hartree-Fock
 Exchange:     0.1500 Hartree-Fock + 1.0000 wB97M-V + LR-HF
 Correlation:  1.0000 wB97M-V
 Using Euler-Maclaurin-Lebedev (99,590) quadrature formula
 Nonlocal Correlation:  VV10 with C = 0.0100 and b = 6.00 and scale = 1.00000
 Grid used for NLC:  SG-1 standard quadrature
 Long-range K will be added via erf
 Coulomb attenuation parameter = 0.3 bohr**(-1)
 Nonlocal correlation = 2.041868494582e-01
Doing General SCFMI
 Exchange:     0.1500 Hartree-Fock + 1.0000 wB97M-V + LR-HF
 Correlation:  1.0000 wB97M-V
 Using Euler-Maclaurin-Lebedev (99,590) quadrature formula
 Nonlocal Correlation:  VV10 with C = 0.0100 and b = 6.00 and scale = 1.00000
 Grid used for NLC:  SG-1 standard quadrature
performing fock build at end of subrot_r(subrot) constructor so that all methods have access
<S^2> of initial wavefunction before polarization iterations 0.0000000000
Beginning iterations for the determination of the polarized wavefunction
Energy prior to optimization (guess energy) = -310.062610334338
Begin Timing: Total SCF Calculation
begin iterations for algorithm: DIIS         
the SCF tolerance is set to 1.00e-08
    1    -310.0626103343      3.01e-04     00000 
    2    -310.0651726945      9.74e-05     00000 
    3    -310.0653901809      6.30e-05     00000 
    4    -310.0654476747      2.16e-05     00000 
    5    -310.0654593966      7.44e-06     00000 
    6    -310.0654626618      3.31e-06     00000 
    7    -310.0654632251      1.72e-06     00000 
    8    -310.0654633656      6.93e-07     00000 
    9    -310.0654633804      2.89e-07     00000 
   10    -310.0654633828      1.05e-07     00000 
   11    -310.0654633832      4.07e-08     00000 
   12    -310.0654633833      1.71e-08     00000 
   13    -310.0654633833      8.82e-09     00000 Convergence criterion met
write pseudocanon occs and virts to disk
write pseudocanon orbital energies to disk
Timing for Total SCF: 305.00s (wall), 1833.48s (cpu)
<S^2> of polarized wavefunction after polarization iterations 0.0000000000
relaxing scfmi constraint to allow all rotations in the entire AO span
Doing General SCFMI
 Exchange:     0.1500 Hartree-Fock + 1.0000 wB97M-V + LR-HF
 Correlation:  1.0000 wB97M-V
 Using Euler-Maclaurin-Lebedev (99,590) quadrature formula
 Nonlocal Correlation:  VV10 with C = 0.0100 and b = 6.00 and scale = 1.00000
 Grid used for NLC:  SG-1 standard quadrature
performing fock build at end of subrot_r(subrot) constructor so that all methods have access
<S^2> of polarized wavefunction before ct-allowed iterations 0.0000000000
Beginning iterations for the determination of the CT-Allowed wavefunction
Energy prior to optimization (guess energy) = -310.065463383268
Begin Timing: Total SCF Calculation
begin iterations for algorithm: DIIS         
the SCF tolerance is set to 1.00e-08
    1    -310.0654633833      1.79e-04     00000 
    2    -310.0688491228      2.63e-05     00000 
    3    -310.0689662018      1.14e-05     00000 
    4    -310.0689741575      5.38e-06     00000 
    5    -310.0689764503      4.86e-07     00000 
    6    -310.0689764965      2.59e-07     00000 
    7    -310.0689765043      6.88e-08     00000 
    8    -310.0689765048      2.63e-08     00000 
    9    -310.0689765049      8.30e-09     00000 Convergence criterion met
write pseudocanon occs and virts to disk
write pseudocanon orbital energies to disk
Timing for Total SCF: 204.00s (wall), 1222.67s (cpu)
<S^2> of ct_allowed wavefunction after ct-allowed iterations 0.0000000000

================================
        Results of EDA2         
================================
Basic EDA Quantities
--------------------
Fragment Energies (Ha):
1 -155.0294880852
2 -155.0292795577
--------------------
  E_prp (kJ/mol) = 0.0000
  E_frz (kJ/mol) = -10.0891
  E_pol (kJ/mol) = -7.4908
  E_vct (kJ/mol) = -9.2238
  E_int (kJ/mol) = -26.8037
--------------------


Decomposition of frozen interaction energy
--------------------
  --------------------
  Orthogonal Frozen Decomposition:
  --------------------
     E_elec   (ELEC)   (kJ/mol) = -80.6809
     E_pauli  (PAULI)  (kJ/mol) = 87.2052
     E_disp   (DISP)   (kJ/mol) = -16.6134
  --------------------
  Classical Frozen Decomposition:
  --------------------
     E_cls_elec  (CLS ELEC)  (kJ/mol) = -42.2424
     E_mod_pauli (MOD PAULI) (kJ/mol) = 46.3246 (FRZ - CLS ELEC - CLS DISP)
     E_cls_disp  (CLS DISP)  (kJ/mol) = -14.1713
  --------------------
--------------------

Simplified EDA Summary (kJ/mol)
--------------------
 PREPARATION      0.0000
 FROZEN           -10.0891 (ELEC + PAULI + DISP)
[ELEC + PAULI = 4.0822, DISP = -14.1713]
 POLARIZATION    -7.4908
 CHARGE TRANSFER -9.2238
 TOTAL           -26.8037     (PRP + FRZ + POL + CT)
--------------------
 
 --------------------------------------------------------------
 
                    Orbital Energies (a.u.)
 --------------------------------------------------------------
 
 Alpha MOs
 -- Occupied --
-19.3531 -19.3059 -10.3975 -10.3715 -10.3380 -10.3167  -1.1730  -1.1300
 -0.8816  -0.8587  -0.7539  -0.7116  -0.6383  -0.6077  -0.5751  -0.5614
 -0.5567  -0.5027  -0.4913  -0.4835  -0.4708  -0.4540  -0.4430  -0.4203
 -0.3971  -0.3586
 -- Virtual --
  0.0301   0.0528   0.0566   0.0588   0.0779   0.0916   0.0965   0.1027
  0.1090   0.1188   0.1353   0.1404   0.1464   0.1528   0.1541   0.1640
  0.1751   0.1836   0.1915   0.1950   0.2036   0.2184   0.2267   0.2321
  0.2361   0.2482   0.2506   0.2570   0.2682   0.2695   0.2743   0.2800
  0.2869   0.2933   0.2990   0.3072   0.3137   0.3173   0.3240   0.3260
  0.3306   0.3326   0.3403   0.3416   0.3481   0.3506   0.3577   0.3589
  0.3649   0.3711   0.3734   0.3766   0.3792   0.3839   0.3985   0.4012
  0.4024   0.4106   0.4167   0.4242   0.4281   0.4338   0.4455   0.4492
  0.4545   0.4581   0.4635   0.4770   0.4802   0.4843   0.4905   0.5034
  0.5063   0.5115   0.5144   0.5198   0.5297   0.5384   0.5412   0.5590
  0.5735   0.5761   0.5958   0.6047   0.6058   0.6129   0.6315   0.6338
  0.6379   0.6541   0.6679   0.6789   0.6851   0.6982   0.7030   0.7157
  0.7185   0.7258   0.7343   0.7356   0.7494   0.7544   0.7651   0.7696
  0.7728   0.7733   0.7881   0.7903   0.7957   0.8025   0.8065   0.8125
  0.8324   0.8409   0.8458   0.8839   0.8882   0.8990   0.9073   0.9221
  0.9353   0.9634   0.9734   0.9911   0.9981   1.0106   1.0322   1.0604
  1.0665   1.0770   1.0856   1.1038   1.1174   1.1374   1.1601   1.1690
  1.1843   1.1996   1.2109   1.2215   1.2266   1.2417   1.2445   1.2580
  1.2708   1.2729   1.2908   1.2951   1.3116   1.3204   1.3393   1.3431
  1.3478   1.3624   1.3839   1.3934   1.4080   1.4159   1.4333   1.4492
  1.4582   1.4661   1.4751   1.4977   1.5111   1.5367   1.5539   1.5823
  1.6094   1.6190   1.6320   1.6498   1.6580   1.6636   1.6711   1.6799
  1.6836   1.6995   1.7080   1.7217   1.7304   1.7539   1.7706   1.7796
  1.8049   1.8296   1.9453   1.9467   1.9695   1.9879   2.0176   2.0478
  2.0851   2.0949   2.1232   2.1548   2.1940   2.2224   2.2510   2.2720
  2.3002   2.3368   2.3725   2.3844   2.4105   2.4371   2.4434   2.4735
  2.5048   2.5476   2.6858   2.7115   2.7239   2.7515   2.7937   2.8036
  2.8244   2.8612   2.8659   2.8787   2.8883   2.9134   2.9172   2.9324
  2.9329   2.9701   2.9726   2.9814   2.9996   3.0334   3.0442   3.0520
  3.0563   3.0734   3.0894   3.1098   3.1320   3.1358   3.1553   3.1910
  3.1969   3.2099   3.2176   3.2421   3.2521   3.2609   3.2756   3.2793
  3.2936   3.3035   3.3145   3.3255   3.3302   3.3398   3.3617   3.3761
  3.4176   3.4307   3.4623   3.4690   3.4821   3.5059   3.5491   3.5623
  3.5822   3.5942   3.6017   3.6161   3.6268   3.6310   3.6556   3.7023
  3.7098   3.7256   3.7339   3.7380   3.7547   3.7921   3.8007   3.8081
  3.8307   3.8486   3.8864   3.9077   3.9165   3.9379   3.9883   3.9932
  4.0049   4.0221   4.0341   4.0449   4.0592   4.0965   4.1054   4.1135
  4.1247   4.1347   4.1484   4.1551   4.1796   4.2018   4.2156   4.2209
  4.2249   4.2381   4.2491   4.2667   4.2859   4.2895   4.2959   4.3203
  4.3321   4.3641   4.3907   4.4062   4.4287   4.4375   4.4622   4.4836
  4.4910   4.4958   4.5144   4.5151   4.5352   4.5693   4.6049   4.6303
  4.6856   4.6888   4.6947   4.7060   4.7273   4.7668   4.8051   4.8120
  4.8487   4.8958   4.9304   4.9384   4.9554   4.9721   4.9758   4.9978
  5.0210   5.0316   5.0514   5.0671   5.1082   5.1491   5.2173   5.2578
  5.2944   5.3208   5.3391   5.4023   5.4132   5.4164   5.4257   5.4278
  5.4342   5.4410   5.4766   5.4998   5.5014   5.5208   5.5661   5.5819
  5.6026   5.6506   5.6641   5.6826   5.7260   5.7446   5.7597   5.7934
  5.8003   5.8504   5.8978   5.9941   6.0849   6.1655   6.2855   6.3000
  6.6144   6.6932   6.8633   6.8791   6.9235   6.9458   6.9928   7.0077
  7.0876   7.1340   7.3652   7.4201   7.5425   7.6475   7.7891   7.8911
 23.7822  23.8194  24.0491  24.0605  44.7338  44.8823
 --------------------------------------------------------------
 
          Ground-State Mulliken Net Atomic Charges

     Atom                 Charge (a.u.)
  ----------------------------------------
      1 C                    -0.902726
      2 C                    -0.187568
      3 O                    -0.385128
      4 H                     0.130991
      5 H                     0.271682
      6 H                     0.252525
      7 H                     0.283001
      8 H                     0.208351
      9 H                     0.337102
     10 C                    -1.083164
     11 C                    -0.143048
     12 O                    -0.467989
     13 H                     0.257165
     14 H                     0.301792
     15 H                     0.261565
     16 H                     0.276994
     17 H                     0.308424
     18 H                     0.280031
  ----------------------------------------
  Sum of atomic charges =     0.000000

 -----------------------------------------------------------------
                    Cartesian Multipole Moments
 -----------------------------------------------------------------
    Charge (ESU x 10^10)
                 0.0000
    Dipole Moment (Debye)
         X       2.4346      Y       0.4742      Z      -0.7687
       Tot       2.5968
    Quadrupole Moments (Debye-Ang)
        XX     -34.0627     XY      -0.1579     YY     -41.3025
        XZ       2.7938     YZ       2.4042     ZZ     -40.5990
    Octopole Moments (Debye-Ang^2)
       XXX      18.9359    XXY       8.3390    XYY       4.0294
       YYY       3.4979    XXZ       3.7012    XYZ       3.6653
       YYZ       3.4637    XZZ       6.6073    YZZ       3.7759
       ZZZ       2.2690
    Hexadecapole Moments (Debye-Ang^3)
      XXXX   -1159.6215   XXXY      20.0012   XXYY    -226.5686
      XYYY       8.3068   YYYY    -203.9380   XXXZ       8.0930
      XXYZ       8.6726   XYYZ       3.3557   YYYZ       9.6033
      XXZZ    -212.0090   XYZZ       5.9226   YYZZ     -51.5237
      XZZZ       2.0142   YZZZ       3.5142   ZZZZ    -125.6552
 -----------------------------------------------------------------
 Total job time:  1524.55s(wall), 5642.04s(cpu) 
 Fri Feb 28 01:13:41 2025

        *************************************************************
        *                                                           *
        *  Thank you very much for using Q-Chem.  Have a nice day.  *
        *                                                           *
        *************************************************************


