
Running Job 1 of 1 004_ethanol_dimer_07_almo.inp
qchem 004_ethanol_dimer_07_almo.inp_97376.0 /scratch/qchem97376/ 6
/home/kchung25/qchem/5.4.0/exe/qcprog.exe_s 004_ethanol_dimer_07_almo.inp_97376.0 /scratch/qchem97376/
                  Welcome to Q-Chem
     A Quantum Leap Into The Future Of Chemistry


 Q-Chem 5.4, Q-Chem, Inc., Pleasanton, CA (2021)

 E. Epifanovsky,  A. T. B. Gilbert,  Xintian Feng,  Joonho Lee,  Yuezhi Mao,  
 N. Mardirossian,  P. Pokhilko,  A. White,  M. Wormit,  M. P. Coons,  
 A. L. Dempwolff,  Zhengting Gan,  D. Hait,  P. R. Horn,  L. D. Jacobson,  
 I. Kaliman,  J. Kussmann,  A. W. Lange,  Ka Un Lao,  D. S. Levine,  Jie Liu,  
 S. C. McKenzie,  A. F. Morrison,  K. Nanda,  F. Plasser,  D. R. Rehn,  
 M. L. Vidal,  Zhi-Qiang You,  Ying Zhu,  B. Alam,  B. Albrecht,  
 A. Aldossary,  E. Alguire,  J. H. Andersen,  D. Barton,  K. Begam,  A. Behn,  
 Y. A. Bernard,  E. J. Berquist,  H. Burton,  A. Carreras,  K. Carter-Fenk,  
 Romit Chakraborty,  A. D. Chien,  K. D. Closser,  V. Cofer-Shabica,  
 S. Dasgupta,  Jia Deng,  M. de Wergifosse,  M. Diedenhofen,  Hainam Do,  
 S. Ehlert,  Po-Tung Fang,  S. Fatehi,  Qingguo Feng,  T. Friedhoff,  
 J. Gayvert,  Qinghui Ge,  G. Gidofalvi,  M. Goldey,  J. Gomes,  
 C. Gonzalez-Espinoza,  S. Gulania,  A. Gunina,  M. W. D. Hanson-Heine,  
 P. H. P. Harbach,  A. W. Hauser,  M. F. Herbst,  M. Hernandez Vera,  
 M. Hodecker,  Z. C. Holden,  S. Houck,  Xunkun Huang,  Kerwin Hui,  
 B. C. Huynh,  M. Ivanov,  Hyunjun Ji,  Hanjie Jiang,  B. Kaduk,  S. Kaehler,  
 K. Khistyaev,  Jaehoon Kim,  P. Klunzinger,  Z. Koczor-Benda,  
 Joong Hoon Koh,  D. Kosenkov,  L. Koulias,  T. Kowalczyk,  C. M. Krauter,  
 K. Kue,  A. Kunitsa,  T. Kus,  A. Landau,  K. V. Lawler,  D. Lefrancois,  
 S. Lehtola,  Rain Li,  Yi-Pei Li,  Jiashu Liang,  M. Liebenthal,  
 Hung-Hsuan Lin,  You-Sheng Lin,  Fenglai Liu,  Kuan-Yu Liu,  
 M. Loipersberger,  A. Luenser,  A. Manjanath,  P. Manohar,  E. Mansoor,  
 S. F. Manzer,  Shan-Ping Mao,  A. V. Marenich,  T. Markovich,  S. Mason,  
 S. A. Maurer,  P. F. McLaughlin,  M. F. S. J. Menger,  J.-M. Mewes,  
 S. A. Mewes,  P. Morgante,  J. W. Mullinax,  K. J. Oosterbaan,  G. Paran,  
 Alexander C. Paul,  Suranjan K. Paul,  F. Pavosevic,  Zheng Pei,  S. Prager,  
 E. I. Proynov,  E. Ramos,  B. Rana,  A. E. Rask,  A. Rettig,  R. M. Richard,  
 F. Rob,  E. Rossomme,  T. Scheele,  M. Scheurer,  M. Schneider,  
 N. Sergueev,  S. M. Sharada,  W. Skomorowski,  D. W. Small,  C. J. Stein,  
 Yu-Chuan Su,  E. J. Sundstrom,  Zhen Tao,  J. Thirman,  T. Tsuchimochi,  
 N. M. Tubman,  S. P. Veccham,  O. Vydrov,  J. Wenzel,  J. Witte,  A. Yamada,  
 Kun Yao,  S. Yeganeh,  S. R. Yost,  A. Zech,  Igor Ying Zhang,  Xing Zhang,  
 Yu Zhang,  D. Zuev,  A. Aspuru-Guzik,  A. T. Bell,  N. A. Besley,  
 K. B. Bravaya,  B. R. Brooks,  D. Casanova,  Jeng-Da Chai,  S. Coriani,  
 C. J. Cramer,  A. E. DePrince, III,  R. A. DiStasio Jr.,  A. Dreuw,  
 B. D. Dunietz,  T. R. Furlani,  W. A. Goddard III,  S. Grimme,  
 S. Hammes-Schiffer,  T. Head-Gordon,  W. J. Hehre,  Chao-Ping Hsu,  
 T.-C. Jagau,  Yousung Jung,  A. Klamt,  Jing Kong,  D. S. Lambrecht,  
 WanZhen Liang,  N. J. Mayhall,  C. W. McCurdy,  J. B. Neaton,  T. Neudecker,  
 C. Ochsenfeld,  J. A. Parkhill,  R. Peverati,  V. A. Rassolov,  Yihan Shao,  
 L. V. Slipchenko,  R. P. Steele,  J. E. Subotnik,  A. J. W. Thom,  
 A. Tkatchenko,  D. G. Truhlar,  T. Van Voorhis,  T. A. Wesolowski,  
 K. B. Whaley,  H. L. Woodcock III,  P. M. Zimmerman,  S. Faraji,  
 P. M. W. Gill,  M. Head-Gordon,  J. M. Herbert,  A. I. Krylov

 Additional authors since Version 5.4.0: 
 Chandrima Chakravarty,  L. Cunha,  R. Kang,  Yongbin Kim,  S. Kotaru,  
 Shaozhi Li,  Xiangyuan Li,  F. Matz,  A. Molle,  V. Parravicini,  
 Haisheng Ren,  Hengyuan Shen,  Yingli Su,  Hung-Yi Tsai,  C. Utku,  
 Fang Wang,  Jeff Yang,  F. Zeller

 Contributors to earlier versions of Q-Chem not listed above: 
 R. D. Adamson,  B. Austin,  R. Baer,  J. Baker,  G. J. O. Beran,  
 K. Brandhorst,  S. T. Brown,  E. F. C. Byrd,  Arup K. Chakraborty,  
 G. K. L. Chan,  Chun-Min Chang,  Yunqing Chen,  C.-L. Cheng,  
 Siu Hung Chien,  D. M. Chipman,  D. L. Crittenden,  H. Dachsel,  
 R. J. Doerksen,  A. D. Dutoi,  R. G. Edgar,  J. Fosso-Tande,  
 L. Fusti-Molnar,  D. Ghosh,  A. Ghysels,  A. Golubeva-Zadorozhnaya,  
 J. Gonthier,  M. S. Gordon,  S. R. Gwaltney,  G. Hawkins,  J. E. Herr,  
 A. Heyden,  S. Hirata,  E. G. Hohenstein,  G. Kedziora,  F. J. Keil,  
 C. Kelley,  Jihan Kim,  R. A. King,  R. Z. Khaliullin,  P. P. Korambath,  
 W. Kurlancheek,  A. Laurent,  A. M. Lee,  M. S. Lee,  S. V. Levchenko,  
 Ching Yeh Lin,  D. Liotard,  E. Livshits,  R. C. Lochan,  I. Lotan,  
 L. A. Martinez-Martinez,  P. E. Maslen,  N. Nair,  D. P. O'Neill,  
 D. Neuhauser,  E. Neuscamman,  C. M. Oana,  R. Olivares-Amaya,  R. Olson,  
 T. M. Perrine,  B. Peters,  P. A. Pieniazek,  A. Prociuk,  Y. M. Rhee,  
 J. Ritchie,  M. A. Rohrdanz,  E. Rosta,  N. J. Russ,  H. F. Schaefer III,  
 M. W. Schmidt,  N. E. Schultz,  S. Sharma,  N. Shenvi,  C. D. Sherrill,  
 A. C. Simmonett,  A. Sodt,  T. Stein,  D. Stuck,  K. S. Thanthiriwatte,  
 V. Vanovschi,  L. Vogt,  Tao Wang,  A. Warshel,  M. A. Watson,  
 C. F. Williams,  Q. Wu,  X. Xu,  Jun Yang,  W. Zhang,  Yan Zhao

   Please cite Q-Chem as follows:
  "Software for the frontiers of quantum chemistry:
   An overview of developments in the Q-Chem 5 package"
   J. Chem. Phys. 155, 084801 (2021)
   https://doi.org/10.1063/5.0055522 (open access)

 Q-Chem 5.4.2 for Intel X86 EM64T Linux

 Parts of Q-Chem use Armadillo 9.900.5 (Nocturnal Misbehaviour).
 http://arma.sourceforge.net/

 Q-Chem begins on Fri Feb 28 02:06:50 2025  

 Host: 
0

     Scratch files written to /scratch/qchem97376//
 Dec1321 |scratch|qcdevops|jenkins|workspace|build_RNUM 5684   
 Processing $rem in /home/kchung25/qchem/5.4.0/config/preferences:
 Processing $rem in /home/kchung25/.qchemrc:

 Q-Chem warning in module libgen/rem_setup.C, line 3079:

 Neither GIA nor STOLL is specified by user. Use STOLL as the default


 Checking the input file for inconsistencies... 	...done.

--------------------------------------------------------------
User input:
--------------------------------------------------------------
$molecule
0 1
--
0 1
C   -2.285309  -0.761088  -0.427513
C   -1.714720   0.631558  -0.309701
O   -1.072778   0.847664   0.919368
H   -0.398112   0.158472   1.022803
H   -2.793669  -0.903055  -1.383934
H   -2.999897  -0.949525   0.376126
H   -1.490434  -1.508978  -0.350374
H   -2.510620   1.378697  -0.382830
H   -1.030152   0.827401  -1.153322
--
0 1
C    2.153779   0.895609  -0.350996
C    1.675674  -0.525792  -0.494537
O    1.106631  -1.028888   0.703835
H    1.772442  -1.000822   1.396537
H    2.547837   1.271404  -1.297171
H    2.954107   0.965752   0.391475
H    1.334010   1.543107  -0.031210
H    2.486286  -1.183106  -0.833936
H    0.880838  -0.591278  -1.243298
$end

$rem
JOBTYPE          eda
EDA2             1
METHOD           wB97M-V
BASIS            def2-TZVPPD
SYMMETRY         false
MEM_TOTAL        50000
MEM_STATIC       10000
THRESH           14
SCF_CONVERGENCE  8
XC_GRID          000099000590
NL_GRID          1
EDA_CLS_DISP     true
FD_MAT_VEC_PROD  FALSE
$end
--------------------------------------------------------------
 ----------------------------------------------------------------
             Standard Nuclear Orientation (Angstroms)
    I     Atom           X                Y                Z
 ----------------------------------------------------------------
    1      C       2.2853090751    -0.7610879053     0.4275132978
    2      C       1.7147201104     0.6315580721     0.3097008605
    3      O       1.0727780576     0.8476636809    -0.9193681807
    4      H       0.3981120323     0.1584716662    -1.0228029182
    5      H       2.7936691170    -0.9030546011     1.3839343207
    6      H       2.9998970309    -0.9495251945    -0.3761256738
    7      H       1.4904340494    -1.5089779077     0.3503745856
    8      H       2.5106201359     1.3786970731     0.3828295729
    9      H       1.0301521568     0.8274013738     1.1533218282
   10      C      -2.1537788798     0.8956091997     0.3509959587
   11      C      -1.6756739147    -0.5257917665     0.4945374100
   12      O      -1.1066309872    -1.0288881831    -0.7038344495
   13      H      -1.7724420198    -1.0008223946    -1.3965364268
   14      H      -2.5478368232     1.2714045270     1.2971708523
   15      H      -2.9541069135     0.9657519755    -0.3914750262
   16      H      -1.3340098762     1.5431070689     0.0312097032
   17      H      -2.4862859177    -1.1831056294     0.8339366684
   18      H      -0.8808378806    -0.5912775400     1.2432983936
 ----------------------------------------------------------------
 Molecular Point Group                 C1    NOp =  1
 Largest Abelian Subgroup              C1    NOp =  1
 Nuclear Repulsion Energy =         262.91886362 hartrees
 There are       26 alpha and       26 beta electrons
 Requested basis set is def2-TZVPPD
 There are 164 shells and 432 basis functions

 Q-Chem warning in module libmdc/get_mega.C, line 171:

 Allowed MEM_STATIC has been capped at MEM_STATIC=8191.
 Reduce the value of MEM_STATIC to silence this warning.


 Total QAlloc Memory Limit  50000 MB
 Mega-Array Size      8007 MB
 MEM_STATIC part      8191 MB
 A cutoff of  1.0D-14 yielded  12685 shell pairs
 There are     87907 function pairs (    108390 Cartesian)
 Smallest overlap matrix eigenvalue = 7.67E-06

 Scale SEOQF with 1.000000e-01/1.000000e-01/1.000000e-01

 Standard Electronic Orientation quadrupole field applied
 Nucleus-field energy     =     0.0000000061 hartrees

 -----------------------------------------------------------------------
  General SCF calculation program by
  Eric Jon Sundstrom, Paul Horn, Yuezhi Mao, Dmitri Zuev, Alec White,
  David Stuck, Shaama M.S., Shane Yost, Joonho Lee, David Small,
  Daniel Levine, Susi Lehtola, Hugh Burton, Evgeny Epifanovsky,
  Bang C. Huynh
 -----------------------------------------------------------------------
================================================================
                 ALMO-EDA with the EDA2 driver                  
================================================================
 The second-generation ALMO-EDA (for DFT):                      
 P. R. Horn, Y. Mao and M. Head-Gordon, PCCP, 18, 23067 (2016)  
 Y. Mao et al. Annu. Rev. Phys. Chem. 72, 641 (2021)            
 Decomposition of the frozen energy:                            
 P. R. Horn, Y. Mao and M. Head-Gordon, JCP, 144, 114107 (2016) 
 FERF model for polarization:                                   
 P. R. Horn and M. Head-Gordon, JCP, 143, 114111 (2015)         
================================================================
 Using eda2 option set 1
 Option set summary: Frozen orbital wavefunction, initial wavefunction decomposition, and nDQ polarization.
--------------------------------
Printing EDA Options
--------------------------------
eda_child_super_basis      0
fragmo_guess_mode          0
child_mp                   1
child_mp_orders            232
cls_elec                   1
cls_disp                   1
scfmi_mode                 1
scfmi_occs                 0
scfmi_virts                0
frz_relax                  0
frz_relax_method           0
dc_pen_start               0
dc_pen_conv                0
dc_pen_increment           0
dc_pen_steps               0
dc_pen_thresh_factor       0
dc_pen_pre_newton_thresh   0
frz_ortho_decomp           1
frz_ortho_decomp_conv      6
plot_mo_ortho_frz          0
frgm_method                2
scfmi_freeze_ss            0
separate_rehyb             0
plot_diff_den              0
eda_nocv                   0
eda_vct_relax              1
disp_free_x                0
disp_free_c                0
eda_bsse                   0
eda_pct_a                  0
eda_covp                   0
--------------------------------
Attempting to make child job directory: /scratch/qchem97376//Frg1/
Attempting to make child job directory: /scratch/qchem97376//Frg2/
Creating input file /scratch/qchem97376/Frg1.input
using default PutDataFrgm: nothing
calling putenv with: QCSCRATCH=/scratch/qchem97376/ 
Spawning Job For Fragment 0
Done Job For Fragment 0
calling putenv with: QCSCRATCH=/scratch 
calling putenv with: QCTHREADS=6 
Creating input file /scratch/qchem97376/Frg2.input
using default PutDataFrgm: nothing
calling putenv with: QCSCRATCH=/scratch/qchem97376/ 
Spawning Job For Fragment 1
Done Job For Fragment 1
calling putenv with: QCSCRATCH=/scratch 
calling putenv with: QCTHREADS=6 
Doing General SCFMI
 Exchange:     0.1500 Hartree-Fock + 1.0000 wB97M-V + LR-HF
 Correlation:  1.0000 wB97M-V
 Using Euler-Maclaurin-Lebedev (99,590) quadrature formula
 Nonlocal Correlation:  VV10 with C = 0.0100 and b = 6.00 and scale = 1.00000
 Grid used for NLC:  SG-1 standard quadrature
performing fock build before subrot guess so that all methods have access
Printing subrot_rss_gen Method Specification:
Occupied Subspace Method is 0
Virtual Subspace Method is 0
Energy of the unrelaxed supersystem initial determinant -310.062482793152
write pseudocanon occs and virts to disk
write pseudocanon orbital energies to disk
Tolerance of ortho_decomp_scf: 1.00e-06
GDM subspace size: 20
Beginning the Orthogonal Decomposition of the Initial Supersystem Wavefunction
    1    -310.0047488596      9.72e-02     ortho_decomp Preconditoned Steepest Descent
    2    -310.0118731536      2.19e-03     ortho_decomp BFGS Step
    3    -310.0118951759      1.71e-04     ortho_decomp BFGS Step
    4    -310.0118952058      5.72e-06     ortho_decomp BFGS Step
    5    -310.0118952059      1.67e-07     ortho_decomp 00000 Convergence criterion met
 Hartree-Fock
 Hartree-Fock
 Hartree-Fock
 Exchange:     0.1500 Hartree-Fock + 1.0000 wB97M-V + LR-HF
 Correlation:  1.0000 wB97M-V
 Using Euler-Maclaurin-Lebedev (99,590) quadrature formula
 Nonlocal Correlation:  VV10 with C = 0.0100 and b = 6.00 and scale = 1.00000
 Grid used for NLC:  SG-1 standard quadrature
 Long-range K will be added via erf
 Coulomb attenuation parameter = 0.3 bohr**(-1)
 Nonlocal correlation = 2.031056027562e-01
Doing General SCFMI
 Exchange:     0.1500 Hartree-Fock + 1.0000 wB97M-V + LR-HF
 Correlation:  1.0000 wB97M-V
 Using Euler-Maclaurin-Lebedev (99,590) quadrature formula
 Nonlocal Correlation:  VV10 with C = 0.0100 and b = 6.00 and scale = 1.00000
 Grid used for NLC:  SG-1 standard quadrature
performing fock build at end of subrot_r(subrot) constructor so that all methods have access
<S^2> of initial wavefunction before polarization iterations 0.0000000000
Beginning iterations for the determination of the polarized wavefunction
Energy prior to optimization (guess energy) = -310.062482793152
Begin Timing: Total SCF Calculation
begin iterations for algorithm: DIIS         
the SCF tolerance is set to 1.00e-08
    1    -310.0624827932      3.06e-04     00000 
    2    -310.0651576297      1.06e-04     00000 
    3    -310.0653900704      6.76e-05     00000 
    4    -310.0654572153      2.34e-05     00000 
    5    -310.0654699526      7.59e-06     00000 
    6    -310.0654734867      3.30e-06     00000 
    7    -310.0654740563      1.77e-06     00000 
    8    -310.0654742063      7.50e-07     00000 
    9    -310.0654742226      3.42e-07     00000 
   10    -310.0654742253      1.32e-07     00000 
   11    -310.0654742256      6.31e-08     00000 
   12    -310.0654742257      2.82e-08     00000 
   13    -310.0654742257      1.24e-08     00000 
   14    -310.0654742257      5.09e-09     00000 Convergence criterion met
write pseudocanon occs and virts to disk
write pseudocanon orbital energies to disk
Timing for Total SCF: 358.00s (wall), 2150.10s (cpu)
<S^2> of polarized wavefunction after polarization iterations 0.0000000000
relaxing scfmi constraint to allow all rotations in the entire AO span
Doing General SCFMI
 Exchange:     0.1500 Hartree-Fock + 1.0000 wB97M-V + LR-HF
 Correlation:  1.0000 wB97M-V
 Using Euler-Maclaurin-Lebedev (99,590) quadrature formula
 Nonlocal Correlation:  VV10 with C = 0.0100 and b = 6.00 and scale = 1.00000
 Grid used for NLC:  SG-1 standard quadrature
performing fock build at end of subrot_r(subrot) constructor so that all methods have access
<S^2> of polarized wavefunction before ct-allowed iterations 0.0000000000
Beginning iterations for the determination of the CT-Allowed wavefunction
Energy prior to optimization (guess energy) = -310.065474225690
Begin Timing: Total SCF Calculation
begin iterations for algorithm: DIIS         
the SCF tolerance is set to 1.00e-08
    1    -310.0654742257      1.81e-04     00000 
    2    -310.0688924359      2.59e-05     00000 
    3    -310.0690088217      1.09e-05     00000 
    4    -310.0690161861      5.48e-06     00000 
    5    -310.0690185223      4.83e-07     00000 
    6    -310.0690185677      2.68e-07     00000 
    7    -310.0690185760      6.63e-08     00000 
    8    -310.0690185765      2.79e-08     00000 
    9    -310.0690185765      7.55e-09     00000 Convergence criterion met
write pseudocanon occs and virts to disk
write pseudocanon orbital energies to disk
Timing for Total SCF: 222.00s (wall), 1331.12s (cpu)
<S^2> of ct_allowed wavefunction after ct-allowed iterations 0.0000000000

================================
        Results of EDA2         
================================
Basic EDA Quantities
--------------------
Fragment Energies (Ha):
1 -155.0291039845
2 -155.0295060446
--------------------
  E_prp (kJ/mol) = 0.0000
  E_frz (kJ/mol) = -10.1681
  E_pol (kJ/mol) = -7.8541
  E_vct (kJ/mol) = -9.3058
  E_int (kJ/mol) = -27.3280
--------------------


Decomposition of frozen interaction energy
--------------------
  --------------------
  Orthogonal Frozen Decomposition:
  --------------------
     E_elec   (ELEC)   (kJ/mol) = -86.2178
     E_pauli  (PAULI)  (kJ/mol) = 98.0109
     E_disp   (DISP)   (kJ/mol) = -21.9611
  --------------------
  Classical Frozen Decomposition:
  --------------------
     E_cls_elec  (CLS ELEC)  (kJ/mol) = -42.8028
     E_mod_pauli (MOD PAULI) (kJ/mol) = 51.4682 (FRZ - CLS ELEC - CLS DISP)
     E_cls_disp  (CLS DISP)  (kJ/mol) = -18.8334
  --------------------
--------------------

Simplified EDA Summary (kJ/mol)
--------------------
 PREPARATION      0.0000
 FROZEN           -10.1681 (ELEC + PAULI + DISP)
[ELEC + PAULI = 8.6654, DISP = -18.8334]
 POLARIZATION    -7.8541
 CHARGE TRANSFER -9.3058
 TOTAL           -27.3280     (PRP + FRZ + POL + CT)
--------------------
 
 --------------------------------------------------------------
 
                    Orbital Energies (a.u.)
 --------------------------------------------------------------
 
 Alpha MOs
 -- Occupied --
-19.3542 -19.3073 -10.3999 -10.3741 -10.3387 -10.3208  -1.1741  -1.1323
 -0.8833  -0.8579  -0.7551  -0.7278  -0.6372  -0.5999  -0.5741  -0.5563
 -0.5488  -0.5345  -0.4969  -0.4847  -0.4712  -0.4596  -0.4446  -0.4151
 -0.3971  -0.3615
 -- Virtual --
  0.0295   0.0504   0.0550   0.0591   0.0804   0.0875   0.0915   0.0991
  0.1121   0.1271   0.1334   0.1424   0.1441   0.1518   0.1548   0.1681
  0.1785   0.1815   0.1923   0.1996   0.2042   0.2081   0.2111   0.2323
  0.2441   0.2510   0.2545   0.2622   0.2700   0.2761   0.2796   0.2814
  0.2930   0.2963   0.2990   0.3088   0.3116   0.3171   0.3204   0.3260
  0.3309   0.3328   0.3377   0.3425   0.3454   0.3546   0.3580   0.3669
  0.3705   0.3782   0.3831   0.3873   0.3934   0.3969   0.4015   0.4042
  0.4138   0.4157   0.4280   0.4349   0.4376   0.4458   0.4532   0.4648
  0.4660   0.4717   0.4761   0.4817   0.4861   0.4946   0.4990   0.5029
  0.5099   0.5249   0.5304   0.5355   0.5430   0.5444   0.5663   0.5745
  0.5763   0.5888   0.5916   0.6040   0.6082   0.6132   0.6385   0.6482
  0.6613   0.6721   0.6786   0.6888   0.6922   0.6993   0.7109   0.7180
  0.7216   0.7342   0.7416   0.7467   0.7533   0.7638   0.7694   0.7730
  0.7810   0.7845   0.7867   0.8039   0.8088   0.8123   0.8356   0.8410
  0.8523   0.8671   0.8720   0.8910   0.9012   0.9049   0.9083   0.9258
  0.9458   0.9688   0.9844   0.9964   1.0079   1.0122   1.0390   1.0523
  1.0582   1.0791   1.1023   1.1341   1.1427   1.1506   1.1603   1.1734
  1.1809   1.1968   1.2077   1.2152   1.2280   1.2308   1.2555   1.2613
  1.2879   1.2970   1.3087   1.3117   1.3269   1.3362   1.3413   1.3576
  1.3718   1.3888   1.3915   1.4000   1.4205   1.4266   1.4476   1.4593
  1.4680   1.4866   1.4915   1.4978   1.5239   1.5424   1.5531   1.5795
  1.6016   1.6226   1.6253   1.6450   1.6527   1.6847   1.6915   1.7050
  1.7194   1.7274   1.7410   1.7468   1.7503   1.7842   1.8019   1.8082
  1.8366   1.8600   1.9460   1.9653   1.9834   2.0023   2.0348   2.0564
  2.0940   2.1196   2.1373   2.1789   2.1892   2.2202   2.2477   2.2836
  2.2920   2.3302   2.3734   2.3895   2.4178   2.4426   2.4628   2.4734
  2.5151   2.5820   2.6911   2.7093   2.7137   2.7975   2.8149   2.8259
  2.8349   2.8610   2.8752   2.8870   2.9037   2.9186   2.9284   2.9456
  2.9477   2.9634   2.9688   2.9889   3.0132   3.0303   3.0391   3.0587
  3.0613   3.0844   3.0914   3.1095   3.1435   3.1465   3.1605   3.1938
  3.2027   3.2233   3.2426   3.2640   3.2723   3.2764   3.2845   3.3002
  3.3086   3.3160   3.3196   3.3270   3.3433   3.3508   3.3845   3.4204
  3.4341   3.4525   3.4668   3.4690   3.5091   3.5146   3.5347   3.5603
  3.5926   3.6029   3.6150   3.6309   3.6450   3.6566   3.6949   3.7100
  3.7289   3.7412   3.7509   3.7604   3.7700   3.7786   3.7976   3.8126
  3.8316   3.8644   3.8866   3.9124   3.9226   3.9518   3.9920   4.0000
  4.0125   4.0227   4.0400   4.0473   4.0583   4.0788   4.1079   4.1207
  4.1315   4.1533   4.1550   4.1806   4.1929   4.2090   4.2167   4.2270
  4.2394   4.2541   4.2641   4.2802   4.2884   4.2969   4.3033   4.3376
  4.3625   4.3825   4.3892   4.4286   4.4448   4.4607   4.4758   4.4835
  4.4948   4.5151   4.5368   4.5423   4.5521   4.5851   4.6269   4.6665
  4.6856   4.6950   4.7272   4.7365   4.7558   4.7732   4.8071   4.8227
  4.8335   4.8490   4.9367   4.9564   4.9735   4.9796   4.9990   5.0044
  5.0397   5.0493   5.0619   5.1136   5.1495   5.1666   5.2212   5.2603
  5.2959   5.3171   5.3314   5.3912   5.4157   5.4233   5.4283   5.4410
  5.4482   5.4650   5.4816   5.4971   5.5152   5.5296   5.5891   5.6016
  5.6048   5.6350   5.6776   5.6977   5.7338   5.7451   5.7513   5.7729
  5.8087   5.8403   5.9087   5.9448   6.0872   6.1482   6.2903   6.3354
  6.6361   6.6947   6.8397   6.8727   6.9190   6.9417   7.0000   7.0300
  7.0989   7.1314   7.3810   7.4110   7.5472   7.6366   7.8106   7.8824
 23.7631  23.8470  24.0550  24.0795  44.7570  44.8600
 --------------------------------------------------------------
 
          Ground-State Mulliken Net Atomic Charges

     Atom                 Charge (a.u.)
  ----------------------------------------
      1 C                    -0.961929
      2 C                    -0.169172
      3 O                    -0.499409
      4 H                     0.267026
      5 H                     0.278581
      6 H                     0.298435
      7 H                     0.240066
      8 H                     0.321363
      9 H                     0.222353
     10 C                    -0.938161
     11 C                    -0.220082
     12 O                    -0.388771
     13 H                     0.125531
     14 H                     0.270842
     15 H                     0.317049
     16 H                     0.256298
     17 H                     0.362730
     18 H                     0.217249
  ----------------------------------------
  Sum of atomic charges =     0.000000

 -----------------------------------------------------------------
                    Cartesian Multipole Moments
 -----------------------------------------------------------------
    Charge (ESU x 10^10)
                -0.0000
    Dipole Moment (Debye)
         X      -2.4133      Y      -0.8281      Z       1.1831
       Tot       2.8124
    Quadrupole Moments (Debye-Ang)
        XX     -35.4196     XY       0.0555     YY     -43.7879
        XZ       3.8098     YZ       2.3761     ZZ     -39.9225
    Octopole Moments (Debye-Ang^2)
       XXX     -10.2725    XXY      -3.3248    XYY      -2.3966
       YYY      -0.2645    XXZ      -4.0036    XYZ       0.3717
       YYZ       0.3081    XZZ      -9.2240    YZZ      -5.0030
       ZZZ      -8.3862
    Hexadecapole Moments (Debye-Ang^3)
      XXXX    -823.9792   XXXY      23.6813   XXYY    -178.5770
      XYYY      11.7639   YYYY    -244.5989   XXXZ      13.9960
      XXYZ       9.0358   XYYZ       2.5319   YYYZ       3.0927
      XXZZ    -158.1262   XYZZ       3.0810   YYZZ     -66.2270
      XZZZ      12.9963   YZZZ       9.0560   ZZZZ    -149.4786
 -----------------------------------------------------------------
 Total job time:  1645.11s(wall), 6292.77s(cpu) 
 Fri Feb 28 02:34:15 2025

        *************************************************************
        *                                                           *
        *  Thank you very much for using Q-Chem.  Have a nice day.  *
        *                                                           *
        *************************************************************


