
Running Job 1 of 1 004_ethanol_dimer_13_almo.inp
qchem 004_ethanol_dimer_13_almo.inp_104523.0 /scratch/qchem104523/ 6
/home/kchung25/qchem/5.4.0/exe/qcprog.exe_s 004_ethanol_dimer_13_almo.inp_104523.0 /scratch/qchem104523/
                  Welcome to Q-Chem
     A Quantum Leap Into The Future Of Chemistry


 Q-Chem 5.4, Q-Chem, Inc., Pleasanton, CA (2021)

 E. Epifanovsky,  A. T. B. Gilbert,  Xintian Feng,  Joonho Lee,  Yuezhi Mao,  
 N. Mardirossian,  P. Pokhilko,  A. White,  M. Wormit,  M. P. Coons,  
 A. L. Dempwolff,  Zhengting Gan,  D. Hait,  P. R. Horn,  L. D. Jacobson,  
 I. Kaliman,  J. Kussmann,  A. W. Lange,  Ka Un Lao,  D. S. Levine,  Jie Liu,  
 S. C. McKenzie,  A. F. Morrison,  K. Nanda,  F. Plasser,  D. R. Rehn,  
 M. L. Vidal,  Zhi-Qiang You,  Ying Zhu,  B. Alam,  B. Albrecht,  
 A. Aldossary,  E. Alguire,  J. H. Andersen,  D. Barton,  K. Begam,  A. Behn,  
 Y. A. Bernard,  E. J. Berquist,  H. Burton,  A. Carreras,  K. Carter-Fenk,  
 Romit Chakraborty,  A. D. Chien,  K. D. Closser,  V. Cofer-Shabica,  
 S. Dasgupta,  Jia Deng,  M. de Wergifosse,  M. Diedenhofen,  Hainam Do,  
 S. Ehlert,  Po-Tung Fang,  S. Fatehi,  Qingguo Feng,  T. Friedhoff,  
 J. Gayvert,  Qinghui Ge,  G. Gidofalvi,  M. Goldey,  J. Gomes,  
 C. Gonzalez-Espinoza,  S. Gulania,  A. Gunina,  M. W. D. Hanson-Heine,  
 P. H. P. Harbach,  A. W. Hauser,  M. F. Herbst,  M. Hernandez Vera,  
 M. Hodecker,  Z. C. Holden,  S. Houck,  Xunkun Huang,  Kerwin Hui,  
 B. C. Huynh,  M. Ivanov,  Hyunjun Ji,  Hanjie Jiang,  B. Kaduk,  S. Kaehler,  
 K. Khistyaev,  Jaehoon Kim,  P. Klunzinger,  Z. Koczor-Benda,  
 Joong Hoon Koh,  D. Kosenkov,  L. Koulias,  T. Kowalczyk,  C. M. Krauter,  
 K. Kue,  A. Kunitsa,  T. Kus,  A. Landau,  K. V. Lawler,  D. Lefrancois,  
 S. Lehtola,  Rain Li,  Yi-Pei Li,  Jiashu Liang,  M. Liebenthal,  
 Hung-Hsuan Lin,  You-Sheng Lin,  Fenglai Liu,  Kuan-Yu Liu,  
 M. Loipersberger,  A. Luenser,  A. Manjanath,  P. Manohar,  E. Mansoor,  
 S. F. Manzer,  Shan-Ping Mao,  A. V. Marenich,  T. Markovich,  S. Mason,  
 S. A. Maurer,  P. F. McLaughlin,  M. F. S. J. Menger,  J.-M. Mewes,  
 S. A. Mewes,  P. Morgante,  J. W. Mullinax,  K. J. Oosterbaan,  G. Paran,  
 Alexander C. Paul,  Suranjan K. Paul,  F. Pavosevic,  Zheng Pei,  S. Prager,  
 E. I. Proynov,  E. Ramos,  B. Rana,  A. E. Rask,  A. Rettig,  R. M. Richard,  
 F. Rob,  E. Rossomme,  T. Scheele,  M. Scheurer,  M. Schneider,  
 N. Sergueev,  S. M. Sharada,  W. Skomorowski,  D. W. Small,  C. J. Stein,  
 Yu-Chuan Su,  E. J. Sundstrom,  Zhen Tao,  J. Thirman,  T. Tsuchimochi,  
 N. M. Tubman,  S. P. Veccham,  O. Vydrov,  J. Wenzel,  J. Witte,  A. Yamada,  
 Kun Yao,  S. Yeganeh,  S. R. Yost,  A. Zech,  Igor Ying Zhang,  Xing Zhang,  
 Yu Zhang,  D. Zuev,  A. Aspuru-Guzik,  A. T. Bell,  N. A. Besley,  
 K. B. Bravaya,  B. R. Brooks,  D. Casanova,  Jeng-Da Chai,  S. Coriani,  
 C. J. Cramer,  A. E. DePrince, III,  R. A. DiStasio Jr.,  A. Dreuw,  
 B. D. Dunietz,  T. R. Furlani,  W. A. Goddard III,  S. Grimme,  
 S. Hammes-Schiffer,  T. Head-Gordon,  W. J. Hehre,  Chao-Ping Hsu,  
 T.-C. Jagau,  Yousung Jung,  A. Klamt,  Jing Kong,  D. S. Lambrecht,  
 WanZhen Liang,  N. J. Mayhall,  C. W. McCurdy,  J. B. Neaton,  T. Neudecker,  
 C. Ochsenfeld,  J. A. Parkhill,  R. Peverati,  V. A. Rassolov,  Yihan Shao,  
 L. V. Slipchenko,  R. P. Steele,  J. E. Subotnik,  A. J. W. Thom,  
 A. Tkatchenko,  D. G. Truhlar,  T. Van Voorhis,  T. A. Wesolowski,  
 K. B. Whaley,  H. L. Woodcock III,  P. M. Zimmerman,  S. Faraji,  
 P. M. W. Gill,  M. Head-Gordon,  J. M. Herbert,  A. I. Krylov

 Additional authors since Version 5.4.0: 
 Chandrima Chakravarty,  L. Cunha,  R. Kang,  Yongbin Kim,  S. Kotaru,  
 Shaozhi Li,  Xiangyuan Li,  F. Matz,  A. Molle,  V. Parravicini,  
 Haisheng Ren,  Hengyuan Shen,  Yingli Su,  Hung-Yi Tsai,  C. Utku,  
 Fang Wang,  Jeff Yang,  F. Zeller

 Contributors to earlier versions of Q-Chem not listed above: 
 R. D. Adamson,  B. Austin,  R. Baer,  J. Baker,  G. J. O. Beran,  
 K. Brandhorst,  S. T. Brown,  E. F. C. Byrd,  Arup K. Chakraborty,  
 G. K. L. Chan,  Chun-Min Chang,  Yunqing Chen,  C.-L. Cheng,  
 Siu Hung Chien,  D. M. Chipman,  D. L. Crittenden,  H. Dachsel,  
 R. J. Doerksen,  A. D. Dutoi,  R. G. Edgar,  J. Fosso-Tande,  
 L. Fusti-Molnar,  D. Ghosh,  A. Ghysels,  A. Golubeva-Zadorozhnaya,  
 J. Gonthier,  M. S. Gordon,  S. R. Gwaltney,  G. Hawkins,  J. E. Herr,  
 A. Heyden,  S. Hirata,  E. G. Hohenstein,  G. Kedziora,  F. J. Keil,  
 C. Kelley,  Jihan Kim,  R. A. King,  R. Z. Khaliullin,  P. P. Korambath,  
 W. Kurlancheek,  A. Laurent,  A. M. Lee,  M. S. Lee,  S. V. Levchenko,  
 Ching Yeh Lin,  D. Liotard,  E. Livshits,  R. C. Lochan,  I. Lotan,  
 L. A. Martinez-Martinez,  P. E. Maslen,  N. Nair,  D. P. O'Neill,  
 D. Neuhauser,  E. Neuscamman,  C. M. Oana,  R. Olivares-Amaya,  R. Olson,  
 T. M. Perrine,  B. Peters,  P. A. Pieniazek,  A. Prociuk,  Y. M. Rhee,  
 J. Ritchie,  M. A. Rohrdanz,  E. Rosta,  N. J. Russ,  H. F. Schaefer III,  
 M. W. Schmidt,  N. E. Schultz,  S. Sharma,  N. Shenvi,  C. D. Sherrill,  
 A. C. Simmonett,  A. Sodt,  T. Stein,  D. Stuck,  K. S. Thanthiriwatte,  
 V. Vanovschi,  L. Vogt,  Tao Wang,  A. Warshel,  M. A. Watson,  
 C. F. Williams,  Q. Wu,  X. Xu,  Jun Yang,  W. Zhang,  Yan Zhao

   Please cite Q-Chem as follows:
  "Software for the frontiers of quantum chemistry:
   An overview of developments in the Q-Chem 5 package"
   J. Chem. Phys. 155, 084801 (2021)
   https://doi.org/10.1063/5.0055522 (open access)

 Q-Chem 5.4.2 for Intel X86 EM64T Linux

 Parts of Q-Chem use Armadillo 9.900.5 (Nocturnal Misbehaviour).
 http://arma.sourceforge.net/

 Q-Chem begins on Fri Feb 28 04:45:18 2025  

 Host: 
0

     Scratch files written to /scratch/qchem104523//
 Dec1321 |scratch|qcdevops|jenkins|workspace|build_RNUM 5684   
 Processing $rem in /home/kchung25/qchem/5.4.0/config/preferences:
 Processing $rem in /home/kchung25/.qchemrc:

 Q-Chem warning in module libgen/rem_setup.C, line 3079:

 Neither GIA nor STOLL is specified by user. Use STOLL as the default


 Checking the input file for inconsistencies... 	...done.

--------------------------------------------------------------
User input:
--------------------------------------------------------------
$molecule
0 1
--
0 1
C   -3.007846   0.331705   0.268325
C   -1.559751  -0.063793   0.358991
O   -1.089212  -0.338140  -0.932978
H   -0.188968  -0.686754  -0.853180
H   -3.415188   0.565167   1.253638
H   -3.595707  -0.477511  -0.168782
H   -3.120447   1.210167  -0.369948
H   -1.449816  -0.941703   1.015791
H   -0.981545   0.750973   0.828220
--
0 1
C    1.991645   1.192966  -0.303845
C    2.064585  -0.008651   0.594397
O    1.552021  -1.121729  -0.121357
H    1.618683  -1.910531   0.420765
H    2.371219   2.078479   0.207582
H    0.960239   1.383869  -0.609335
H    2.586189   1.032436  -1.204809
H    1.479341   0.160659   1.509069
H    3.101735  -0.199658   0.898460
$end

$rem
JOBTYPE          eda
EDA2             1
METHOD           wB97M-V
BASIS            def2-TZVPPD
SYMMETRY         false
MEM_TOTAL        50000
MEM_STATIC       10000
THRESH           14
SCF_CONVERGENCE  8
XC_GRID          000099000590
NL_GRID          1
EDA_CLS_DISP     true
FD_MAT_VEC_PROD  FALSE
$end
--------------------------------------------------------------
 ----------------------------------------------------------------
             Standard Nuclear Orientation (Angstroms)
    I     Atom           X                Y                Z
 ----------------------------------------------------------------
    1      C       3.0078460598    -0.3317052803     0.2683250087
    2      C       1.5597511054     0.0637928863     0.3589910097
    3      O       1.0892121296     0.3381399173    -0.9329779926
    4      H       0.1889681698     0.6867540212    -0.8531799938
    5      H       3.4151880386    -0.5651673094     1.2536380106
    6      H       3.5957071496     0.4775106451    -0.1687820086
    7      H       3.1204469563    -1.2101673042    -0.3699479765
    8      H       1.4498162089     0.9417029103     1.0157909949
    9      H       0.9815450151    -0.7509730396     0.8282200270
   10      C      -1.9916450414    -1.1929657207    -0.3038449491
   11      C      -2.0645848996     0.0086513033     0.5943970303
   12      O      -1.5520207767     1.1217292324    -0.1213569920
   13      H      -1.6186826839     1.9105312494     0.4207649946
   14      H      -2.3712191395    -2.0784786686     0.2075820684
   15      H      -0.9602390648    -1.3838688436    -0.6093349514
   16      H      -2.5861890280    -1.0324356688    -1.2048089487
   17      H      -1.4793409140    -0.1606587474     1.5090690301
   18      H      -3.1017348762     0.1996584267     0.8984600325
 ----------------------------------------------------------------
 Molecular Point Group                 C1    NOp =  1
 Largest Abelian Subgroup              C1    NOp =  1
 Nuclear Repulsion Energy =         257.89990952 hartrees
 There are       26 alpha and       26 beta electrons
 Requested basis set is def2-TZVPPD
 There are 164 shells and 432 basis functions

 Q-Chem warning in module libmdc/get_mega.C, line 171:

 Allowed MEM_STATIC has been capped at MEM_STATIC=8191.
 Reduce the value of MEM_STATIC to silence this warning.


 Total QAlloc Memory Limit  50000 MB
 Mega-Array Size      8007 MB
 MEM_STATIC part      8191 MB
 A cutoff of  1.0D-14 yielded  12457 shell pairs
 There are     86055 function pairs (    105938 Cartesian)
 Smallest overlap matrix eigenvalue = 7.74E-06

 Scale SEOQF with 1.000000e-01/1.000000e-01/1.000000e-01

 Standard Electronic Orientation quadrupole field applied
 Nucleus-field energy     =     0.0000000079 hartrees

 -----------------------------------------------------------------------
  General SCF calculation program by
  Eric Jon Sundstrom, Paul Horn, Yuezhi Mao, Dmitri Zuev, Alec White,
  David Stuck, Shaama M.S., Shane Yost, Joonho Lee, David Small,
  Daniel Levine, Susi Lehtola, Hugh Burton, Evgeny Epifanovsky,
  Bang C. Huynh
 -----------------------------------------------------------------------
================================================================
                 ALMO-EDA with the EDA2 driver                  
================================================================
 The second-generation ALMO-EDA (for DFT):                      
 P. R. Horn, Y. Mao and M. Head-Gordon, PCCP, 18, 23067 (2016)  
 Y. Mao et al. Annu. Rev. Phys. Chem. 72, 641 (2021)            
 Decomposition of the frozen energy:                            
 P. R. Horn, Y. Mao and M. Head-Gordon, JCP, 144, 114107 (2016) 
 FERF model for polarization:                                   
 P. R. Horn and M. Head-Gordon, JCP, 143, 114111 (2015)         
================================================================
 Using eda2 option set 1
 Option set summary: Frozen orbital wavefunction, initial wavefunction decomposition, and nDQ polarization.
--------------------------------
Printing EDA Options
--------------------------------
eda_child_super_basis      0
fragmo_guess_mode          0
child_mp                   1
child_mp_orders            232
cls_elec                   1
cls_disp                   1
scfmi_mode                 1
scfmi_occs                 0
scfmi_virts                0
frz_relax                  0
frz_relax_method           0
dc_pen_start               0
dc_pen_conv                0
dc_pen_increment           0
dc_pen_steps               0
dc_pen_thresh_factor       0
dc_pen_pre_newton_thresh   0
frz_ortho_decomp           1
frz_ortho_decomp_conv      6
plot_mo_ortho_frz          0
frgm_method                2
scfmi_freeze_ss            0
separate_rehyb             0
plot_diff_den              0
eda_nocv                   0
eda_vct_relax              1
disp_free_x                0
disp_free_c                0
eda_bsse                   0
eda_pct_a                  0
eda_covp                   0
--------------------------------
Attempting to make child job directory: /scratch/qchem104523//Frg1/
Attempting to make child job directory: /scratch/qchem104523//Frg2/
Creating input file /scratch/qchem104523/Frg1.input
using default PutDataFrgm: nothing
calling putenv with: QCSCRATCH=/scratch/qchem104523/ 
Spawning Job For Fragment 0
Done Job For Fragment 0
calling putenv with: QCSCRATCH=/scratch 
calling putenv with: QCTHREADS=6 
Creating input file /scratch/qchem104523/Frg2.input
using default PutDataFrgm: nothing
calling putenv with: QCSCRATCH=/scratch/qchem104523/ 
Spawning Job For Fragment 1
Done Job For Fragment 1
calling putenv with: QCSCRATCH=/scratch 
calling putenv with: QCTHREADS=6 
Doing General SCFMI
 Exchange:     0.1500 Hartree-Fock + 1.0000 wB97M-V + LR-HF
 Correlation:  1.0000 wB97M-V
 Using Euler-Maclaurin-Lebedev (99,590) quadrature formula
 Nonlocal Correlation:  VV10 with C = 0.0100 and b = 6.00 and scale = 1.00000
 Grid used for NLC:  SG-1 standard quadrature
performing fock build before subrot guess so that all methods have access
Printing subrot_rss_gen Method Specification:
Occupied Subspace Method is 0
Virtual Subspace Method is 0
Energy of the unrelaxed supersystem initial determinant -310.062579606508
write pseudocanon occs and virts to disk
write pseudocanon orbital energies to disk
Tolerance of ortho_decomp_scf: 1.00e-06
GDM subspace size: 20
Beginning the Orthogonal Decomposition of the Initial Supersystem Wavefunction
    1    -310.0091912027      9.27e-02     ortho_decomp Preconditoned Steepest Descent
    2    -310.0157197625      2.10e-03     ortho_decomp BFGS Step
    3    -310.0157397876      1.59e-04     ortho_decomp BFGS Step
    4    -310.0157398136      5.35e-06     ortho_decomp BFGS Step
    5    -310.0157398137      1.72e-07     ortho_decomp 00000 Convergence criterion met
 Hartree-Fock
 Hartree-Fock
 Hartree-Fock
 Exchange:     0.1500 Hartree-Fock + 1.0000 wB97M-V + LR-HF
 Correlation:  1.0000 wB97M-V
 Using Euler-Maclaurin-Lebedev (99,590) quadrature formula
 Nonlocal Correlation:  VV10 with C = 0.0100 and b = 6.00 and scale = 1.00000
 Grid used for NLC:  SG-1 standard quadrature
 Long-range K will be added via erf
 Coulomb attenuation parameter = 0.3 bohr**(-1)
 Nonlocal correlation = 2.037066911407e-01
Doing General SCFMI
 Exchange:     0.1500 Hartree-Fock + 1.0000 wB97M-V + LR-HF
 Correlation:  1.0000 wB97M-V
 Using Euler-Maclaurin-Lebedev (99,590) quadrature formula
 Nonlocal Correlation:  VV10 with C = 0.0100 and b = 6.00 and scale = 1.00000
 Grid used for NLC:  SG-1 standard quadrature
performing fock build at end of subrot_r(subrot) constructor so that all methods have access
<S^2> of initial wavefunction before polarization iterations 0.0000000000
Beginning iterations for the determination of the polarized wavefunction
Energy prior to optimization (guess energy) = -310.062579606508
Begin Timing: Total SCF Calculation
begin iterations for algorithm: DIIS         
the SCF tolerance is set to 1.00e-08
    1    -310.0625796065      2.94e-04     00000 
    2    -310.0650688768      1.03e-04     00000 
    3    -310.0652888091      6.84e-05     00000 
    4    -310.0653554984      2.14e-05     00000 
    5    -310.0653671051      7.09e-06     00000 
    6    -310.0653702099      3.06e-06     00000 
    7    -310.0653706985      1.63e-06     00000 
    8    -310.0653708212      6.15e-07     00000 
    9    -310.0653708322      2.52e-07     00000 
   10    -310.0653708337      8.42e-08     00000 
   11    -310.0653708339      3.26e-08     00000 
   12    -310.0653708339      1.23e-08     00000 
   13    -310.0653708339      4.98e-09     00000 Convergence criterion met
write pseudocanon occs and virts to disk
write pseudocanon orbital energies to disk
Timing for Total SCF: 317.00s (wall), 1899.56s (cpu)
<S^2> of polarized wavefunction after polarization iterations 0.0000000000
relaxing scfmi constraint to allow all rotations in the entire AO span
Doing General SCFMI
 Exchange:     0.1500 Hartree-Fock + 1.0000 wB97M-V + LR-HF
 Correlation:  1.0000 wB97M-V
 Using Euler-Maclaurin-Lebedev (99,590) quadrature formula
 Nonlocal Correlation:  VV10 with C = 0.0100 and b = 6.00 and scale = 1.00000
 Grid used for NLC:  SG-1 standard quadrature
performing fock build at end of subrot_r(subrot) constructor so that all methods have access
<S^2> of polarized wavefunction before ct-allowed iterations 0.0000000000
Beginning iterations for the determination of the CT-Allowed wavefunction
Energy prior to optimization (guess energy) = -310.065370833950
Begin Timing: Total SCF Calculation
begin iterations for algorithm: DIIS         
the SCF tolerance is set to 1.00e-08
    1    -310.0653708339      1.75e-04     00000 
    2    -310.0685817742      2.51e-05     00000 
    3    -310.0686884129      1.04e-05     00000 
    4    -310.0686950600      5.13e-06     00000 
    5    -310.0686970984      4.78e-07     00000 
    6    -310.0686971395      2.53e-07     00000 
    7    -310.0686971474      5.36e-08     00000 
    8    -310.0686971477      2.45e-08     00000 
    9    -310.0686971478      7.80e-09     00000 Convergence criterion met
write pseudocanon occs and virts to disk
write pseudocanon orbital energies to disk
Timing for Total SCF: 212.00s (wall), 1269.26s (cpu)
<S^2> of ct_allowed wavefunction after ct-allowed iterations 0.0000000000

================================
        Results of EDA2         
================================
Basic EDA Quantities
--------------------
Fragment Energies (Ha):
1 -155.0291642667
2 -155.0296862723
--------------------
  E_prp (kJ/mol) = 0.0000
  E_frz (kJ/mol) = -9.7908
  E_pol (kJ/mol) = -7.3285
  E_vct (kJ/mol) = -8.7333
  E_int (kJ/mol) = -25.8526
--------------------


Decomposition of frozen interaction energy
--------------------
  --------------------
  Orthogonal Frozen Decomposition:
  --------------------
     E_elec   (ELEC)   (kJ/mol) = -81.3711
     E_pauli  (PAULI)  (kJ/mol) = 90.8553
     E_disp   (DISP)   (kJ/mol) = -19.2750
  --------------------
  Classical Frozen Decomposition:
  --------------------
     E_cls_elec  (CLS ELEC)  (kJ/mol) = -41.0009
     E_mod_pauli (MOD PAULI) (kJ/mol) = 47.6779 (FRZ - CLS ELEC - CLS DISP)
     E_cls_disp  (CLS DISP)  (kJ/mol) = -16.4678
  --------------------
--------------------

Simplified EDA Summary (kJ/mol)
--------------------
 PREPARATION      0.0000
 FROZEN           -9.7908 (ELEC + PAULI + DISP)
[ELEC + PAULI = 6.6770, DISP = -16.4678]
 POLARIZATION    -7.3285
 CHARGE TRANSFER -8.7333
 TOTAL           -25.8526     (PRP + FRZ + POL + CT)
--------------------
 
 --------------------------------------------------------------
 
                    Orbital Energies (a.u.)
 --------------------------------------------------------------
 
 Alpha MOs
 -- Occupied --
-19.3545 -19.3069 -10.4004 -10.3755 -10.3349 -10.3188  -1.1742  -1.1322
 -0.8856  -0.8610  -0.7396  -0.7138  -0.6514  -0.6204  -0.5871  -0.5643
 -0.5297  -0.4988  -0.4933  -0.4799  -0.4744  -0.4564  -0.4521  -0.4224
 -0.3959  -0.3601
 -- Virtual --
  0.0267   0.0517   0.0557   0.0597   0.0755   0.0894   0.0935   0.1015
  0.1121   0.1193   0.1348   0.1376   0.1473   0.1508   0.1578   0.1708
  0.1763   0.1826   0.1862   0.1964   0.2017   0.2103   0.2283   0.2291
  0.2369   0.2432   0.2562   0.2626   0.2681   0.2699   0.2779   0.2842
  0.2849   0.2937   0.2949   0.3035   0.3133   0.3171   0.3189   0.3251
  0.3329   0.3332   0.3387   0.3470   0.3474   0.3513   0.3548   0.3621
  0.3659   0.3672   0.3743   0.3826   0.3856   0.3925   0.3946   0.3976
  0.4093   0.4122   0.4265   0.4312   0.4365   0.4402   0.4420   0.4507
  0.4587   0.4620   0.4709   0.4753   0.4849   0.4907   0.4919   0.4994
  0.5045   0.5079   0.5096   0.5130   0.5345   0.5445   0.5574   0.5601
  0.5776   0.5794   0.5941   0.6043   0.6107   0.6204   0.6252   0.6432
  0.6606   0.6677   0.6756   0.6892   0.6960   0.6972   0.7069   0.7125
  0.7283   0.7353   0.7435   0.7469   0.7529   0.7565   0.7603   0.7685
  0.7753   0.7836   0.7950   0.8024   0.8153   0.8184   0.8283   0.8295
  0.8371   0.8477   0.8491   0.8752   0.8942   0.9062   0.9167   0.9225
  0.9390   0.9587   0.9768   0.9973   1.0034   1.0100   1.0385   1.0556
  1.0712   1.0783   1.0821   1.0919   1.1153   1.1395   1.1468   1.1597
  1.1922   1.2036   1.2138   1.2182   1.2309   1.2462   1.2534   1.2636
  1.2721   1.2811   1.2963   1.3026   1.3291   1.3316   1.3439   1.3541
  1.3569   1.3641   1.3677   1.3865   1.4048   1.4135   1.4343   1.4476
  1.4542   1.4599   1.4844   1.5041   1.5162   1.5252   1.5792   1.5984
  1.6124   1.6356   1.6389   1.6500   1.6541   1.6665   1.6816   1.6891
  1.6971   1.7039   1.7153   1.7274   1.7517   1.7723   1.7787   1.8057
  1.8293   1.8420   1.9306   1.9477   1.9705   1.9982   2.0236   2.0410
  2.0650   2.1104   2.1254   2.1382   2.1951   2.2505   2.2578   2.2779
  2.3159   2.3252   2.3468   2.4012   2.4126   2.4232   2.4499   2.4641
  2.5198   2.5804   2.6790   2.7079   2.7319   2.7502   2.7847   2.8179
  2.8512   2.8675   2.8774   2.8809   2.9025   2.9085   2.9273   2.9402
  2.9620   2.9766   2.9927   2.9956   3.0079   3.0216   3.0415   3.0525
  3.0654   3.0757   3.1043   3.1183   3.1352   3.1559   3.1755   3.1821
  3.2046   3.2195   3.2258   3.2339   3.2477   3.2615   3.2657   3.2756
  3.2808   3.2980   3.3137   3.3217   3.3299   3.3514   3.3831   3.3929
  3.4357   3.4596   3.4823   3.4868   3.5002   3.5268   3.5509   3.5665
  3.5886   3.5908   3.6051   3.6137   3.6209   3.6236   3.6457   3.6963
  3.7068   3.7258   3.7360   3.7573   3.7802   3.7969   3.8031   3.8210
  3.8327   3.8854   3.9013   3.9114   3.9296   3.9569   3.9996   4.0015
  4.0250   4.0289   4.0457   4.0530   4.0798   4.0870   4.1108   4.1141
  4.1166   4.1296   4.1451   4.1589   4.1693   4.1769   4.1895   4.2137
  4.2263   4.2405   4.2587   4.2626   4.2727   4.2847   4.3074   4.3207
  4.3510   4.3634   4.3972   4.4006   4.4152   4.4392   4.4839   4.4927
  4.5056   4.5131   4.5278   4.5410   4.5647   4.5843   4.6062   4.6448
  4.6470   4.6880   4.6975   4.7156   4.7243   4.7545   4.8132   4.8473
  4.8558   4.8977   4.9297   4.9380   4.9478   4.9545   4.9601   4.9868
  5.0074   5.0189   5.0361   5.0958   5.1067   5.1263   5.2557   5.2614
  5.2843   5.3081   5.3244   5.3664   5.4113   5.4199   5.4216   5.4270
  5.4370   5.4481   5.4677   5.4866   5.5103   5.5280   5.5626   5.5977
  5.6360   5.6532   5.6699   5.6937   5.7507   5.7580   5.7991   5.8041
  5.8215   5.8556   5.9345   6.0079   6.0820   6.1526   6.2495   6.2945
  6.6648   6.6834   6.8366   6.8572   6.9033   6.9399   6.9471   7.0306
  7.0955   7.1149   7.3719   7.4081   7.5521   7.6423   7.7898   7.8633
 23.7459  23.8536  24.0682  24.0724  44.7977  44.9102
 --------------------------------------------------------------
 
          Ground-State Mulliken Net Atomic Charges

     Atom                 Charge (a.u.)
  ----------------------------------------
      1 C                    -1.191801
      2 C                    -0.021404
      3 O                    -0.491671
      4 H                     0.272083
      5 H                     0.310605
      6 H                     0.275171
      7 H                     0.283702
      8 H                     0.310972
      9 H                     0.231543
     10 C                    -0.933922
     11 C                    -0.254078
     12 O                    -0.402134
     13 H                     0.132521
     14 H                     0.293765
     15 H                     0.227679
     16 H                     0.283421
     17 H                     0.298407
     18 H                     0.375141
  ----------------------------------------
  Sum of atomic charges =     0.000000

 -----------------------------------------------------------------
                    Cartesian Multipole Moments
 -----------------------------------------------------------------
    Charge (ESU x 10^10)
                -0.0000
    Dipole Moment (Debye)
         X      -2.0608      Y       0.3155      Z       2.7228
       Tot       3.4293
    Quadrupole Moments (Debye-Ang)
        XX     -38.7225     XY      -1.2316     YY     -37.5218
        XZ       0.1851     YZ       2.2072     ZZ     -42.4859
    Octopole Moments (Debye-Ang^2)
       XXX     -11.4973    XXY       2.3230    XYY      -7.2180
       YYY      15.2330    XXZ       5.8066    XYZ      -2.3519
       YYZ       2.8268    XZZ      -5.4395    YZZ       2.1771
       ZZZ      -0.6550
    Hexadecapole Moments (Debye-Ang^3)
      XXXX   -1067.7820   XXXY      -6.0026   XXYY    -204.7618
      XYYY     -19.5047   YYYY    -178.8936   XXXZ     -10.5797
      XXYZ       6.9459   XYYZ      -9.5202   YYYZ       5.6478
      XXZZ    -203.7309   XYZZ      -4.4646   YYZZ     -56.0721
      XZZZ       3.4820   YZZZ      -0.6076   ZZZZ    -140.5737
 -----------------------------------------------------------------
 Total job time:  1548.24s(wall), 5850.44s(cpu) 
 Fri Feb 28 05:11:06 2025

        *************************************************************
        *                                                           *
        *  Thank you very much for using Q-Chem.  Have a nice day.  *
        *                                                           *
        *************************************************************


