
Running Job 1 of 1 004_ethanol_dimer_41_almo.inp
qchem 004_ethanol_dimer_41_almo.inp_139500.0 /scratch/qchem139500/ 6
/home/kchung25/qchem/5.4.0/exe/qcprog.exe_s 004_ethanol_dimer_41_almo.inp_139500.0 /scratch/qchem139500/
                  Welcome to Q-Chem
     A Quantum Leap Into The Future Of Chemistry


 Q-Chem 5.4, Q-Chem, Inc., Pleasanton, CA (2021)

 E. Epifanovsky,  A. T. B. Gilbert,  Xintian Feng,  Joonho Lee,  Yuezhi Mao,  
 N. Mardirossian,  P. Pokhilko,  A. White,  M. Wormit,  M. P. Coons,  
 A. L. Dempwolff,  Zhengting Gan,  D. Hait,  P. R. Horn,  L. D. Jacobson,  
 I. Kaliman,  J. Kussmann,  A. W. Lange,  Ka Un Lao,  D. S. Levine,  Jie Liu,  
 S. C. McKenzie,  A. F. Morrison,  K. Nanda,  F. Plasser,  D. R. Rehn,  
 M. L. Vidal,  Zhi-Qiang You,  Ying Zhu,  B. Alam,  B. Albrecht,  
 A. Aldossary,  E. Alguire,  J. H. Andersen,  D. Barton,  K. Begam,  A. Behn,  
 Y. A. Bernard,  E. J. Berquist,  H. Burton,  A. Carreras,  K. Carter-Fenk,  
 Romit Chakraborty,  A. D. Chien,  K. D. Closser,  V. Cofer-Shabica,  
 S. Dasgupta,  Jia Deng,  M. de Wergifosse,  M. Diedenhofen,  Hainam Do,  
 S. Ehlert,  Po-Tung Fang,  S. Fatehi,  Qingguo Feng,  T. Friedhoff,  
 J. Gayvert,  Qinghui Ge,  G. Gidofalvi,  M. Goldey,  J. Gomes,  
 C. Gonzalez-Espinoza,  S. Gulania,  A. Gunina,  M. W. D. Hanson-Heine,  
 P. H. P. Harbach,  A. W. Hauser,  M. F. Herbst,  M. Hernandez Vera,  
 M. Hodecker,  Z. C. Holden,  S. Houck,  Xunkun Huang,  Kerwin Hui,  
 B. C. Huynh,  M. Ivanov,  Hyunjun Ji,  Hanjie Jiang,  B. Kaduk,  S. Kaehler,  
 K. Khistyaev,  Jaehoon Kim,  P. Klunzinger,  Z. Koczor-Benda,  
 Joong Hoon Koh,  D. Kosenkov,  L. Koulias,  T. Kowalczyk,  C. M. Krauter,  
 K. Kue,  A. Kunitsa,  T. Kus,  A. Landau,  K. V. Lawler,  D. Lefrancois,  
 S. Lehtola,  Rain Li,  Yi-Pei Li,  Jiashu Liang,  M. Liebenthal,  
 Hung-Hsuan Lin,  You-Sheng Lin,  Fenglai Liu,  Kuan-Yu Liu,  
 M. Loipersberger,  A. Luenser,  A. Manjanath,  P. Manohar,  E. Mansoor,  
 S. F. Manzer,  Shan-Ping Mao,  A. V. Marenich,  T. Markovich,  S. Mason,  
 S. A. Maurer,  P. F. McLaughlin,  M. F. S. J. Menger,  J.-M. Mewes,  
 S. A. Mewes,  P. Morgante,  J. W. Mullinax,  K. J. Oosterbaan,  G. Paran,  
 Alexander C. Paul,  Suranjan K. Paul,  F. Pavosevic,  Zheng Pei,  S. Prager,  
 E. I. Proynov,  E. Ramos,  B. Rana,  A. E. Rask,  A. Rettig,  R. M. Richard,  
 F. Rob,  E. Rossomme,  T. Scheele,  M. Scheurer,  M. Schneider,  
 N. Sergueev,  S. M. Sharada,  W. Skomorowski,  D. W. Small,  C. J. Stein,  
 Yu-Chuan Su,  E. J. Sundstrom,  Zhen Tao,  J. Thirman,  T. Tsuchimochi,  
 N. M. Tubman,  S. P. Veccham,  O. Vydrov,  J. Wenzel,  J. Witte,  A. Yamada,  
 Kun Yao,  S. Yeganeh,  S. R. Yost,  A. Zech,  Igor Ying Zhang,  Xing Zhang,  
 Yu Zhang,  D. Zuev,  A. Aspuru-Guzik,  A. T. Bell,  N. A. Besley,  
 K. B. Bravaya,  B. R. Brooks,  D. Casanova,  Jeng-Da Chai,  S. Coriani,  
 C. J. Cramer,  A. E. DePrince, III,  R. A. DiStasio Jr.,  A. Dreuw,  
 B. D. Dunietz,  T. R. Furlani,  W. A. Goddard III,  S. Grimme,  
 S. Hammes-Schiffer,  T. Head-Gordon,  W. J. Hehre,  Chao-Ping Hsu,  
 T.-C. Jagau,  Yousung Jung,  A. Klamt,  Jing Kong,  D. S. Lambrecht,  
 WanZhen Liang,  N. J. Mayhall,  C. W. McCurdy,  J. B. Neaton,  T. Neudecker,  
 C. Ochsenfeld,  J. A. Parkhill,  R. Peverati,  V. A. Rassolov,  Yihan Shao,  
 L. V. Slipchenko,  R. P. Steele,  J. E. Subotnik,  A. J. W. Thom,  
 A. Tkatchenko,  D. G. Truhlar,  T. Van Voorhis,  T. A. Wesolowski,  
 K. B. Whaley,  H. L. Woodcock III,  P. M. Zimmerman,  S. Faraji,  
 P. M. W. Gill,  M. Head-Gordon,  J. M. Herbert,  A. I. Krylov

 Additional authors since Version 5.4.0: 
 Chandrima Chakravarty,  L. Cunha,  R. Kang,  Yongbin Kim,  S. Kotaru,  
 Shaozhi Li,  Xiangyuan Li,  F. Matz,  A. Molle,  V. Parravicini,  
 Haisheng Ren,  Hengyuan Shen,  Yingli Su,  Hung-Yi Tsai,  C. Utku,  
 Fang Wang,  Jeff Yang,  F. Zeller

 Contributors to earlier versions of Q-Chem not listed above: 
 R. D. Adamson,  B. Austin,  R. Baer,  J. Baker,  G. J. O. Beran,  
 K. Brandhorst,  S. T. Brown,  E. F. C. Byrd,  Arup K. Chakraborty,  
 G. K. L. Chan,  Chun-Min Chang,  Yunqing Chen,  C.-L. Cheng,  
 Siu Hung Chien,  D. M. Chipman,  D. L. Crittenden,  H. Dachsel,  
 R. J. Doerksen,  A. D. Dutoi,  R. G. Edgar,  J. Fosso-Tande,  
 L. Fusti-Molnar,  D. Ghosh,  A. Ghysels,  A. Golubeva-Zadorozhnaya,  
 J. Gonthier,  M. S. Gordon,  S. R. Gwaltney,  G. Hawkins,  J. E. Herr,  
 A. Heyden,  S. Hirata,  E. G. Hohenstein,  G. Kedziora,  F. J. Keil,  
 C. Kelley,  Jihan Kim,  R. A. King,  R. Z. Khaliullin,  P. P. Korambath,  
 W. Kurlancheek,  A. Laurent,  A. M. Lee,  M. S. Lee,  S. V. Levchenko,  
 Ching Yeh Lin,  D. Liotard,  E. Livshits,  R. C. Lochan,  I. Lotan,  
 L. A. Martinez-Martinez,  P. E. Maslen,  N. Nair,  D. P. O'Neill,  
 D. Neuhauser,  E. Neuscamman,  C. M. Oana,  R. Olivares-Amaya,  R. Olson,  
 T. M. Perrine,  B. Peters,  P. A. Pieniazek,  A. Prociuk,  Y. M. Rhee,  
 J. Ritchie,  M. A. Rohrdanz,  E. Rosta,  N. J. Russ,  H. F. Schaefer III,  
 M. W. Schmidt,  N. E. Schultz,  S. Sharma,  N. Shenvi,  C. D. Sherrill,  
 A. C. Simmonett,  A. Sodt,  T. Stein,  D. Stuck,  K. S. Thanthiriwatte,  
 V. Vanovschi,  L. Vogt,  Tao Wang,  A. Warshel,  M. A. Watson,  
 C. F. Williams,  Q. Wu,  X. Xu,  Jun Yang,  W. Zhang,  Yan Zhao

   Please cite Q-Chem as follows:
  "Software for the frontiers of quantum chemistry:
   An overview of developments in the Q-Chem 5 package"
   J. Chem. Phys. 155, 084801 (2021)
   https://doi.org/10.1063/5.0055522 (open access)

 Q-Chem 5.4.2 for Intel X86 EM64T Linux

 Parts of Q-Chem use Armadillo 9.900.5 (Nocturnal Misbehaviour).
 http://arma.sourceforge.net/

 Q-Chem begins on Fri Feb 28 16:49:17 2025  

 Host: 
0

     Scratch files written to /scratch/qchem139500//
 Dec1321 |scratch|qcdevops|jenkins|workspace|build_RNUM 5684   
 Processing $rem in /home/kchung25/qchem/5.4.0/config/preferences:
 Processing $rem in /home/kchung25/.qchemrc:

 Q-Chem warning in module libgen/rem_setup.C, line 3079:

 Neither GIA nor STOLL is specified by user. Use STOLL as the default


 Checking the input file for inconsistencies... 	...done.

--------------------------------------------------------------
User input:
--------------------------------------------------------------
$molecule
0 1
--
0 1
C   -2.047742   1.200587  -0.071445
C   -2.243318  -0.219666  -0.521783
O   -1.615977  -1.063864   0.419499
H   -1.731882  -1.977182   0.150940
H   -2.536756   1.896868  -0.754295
H   -0.984032   1.446270  -0.031153
H   -2.464672   1.343588   0.927225
H   -1.812160  -0.360768  -1.523832
H   -3.316117  -0.447358  -0.597375
--
0 1
C    1.488247   0.250942   1.173895
C    1.616273  -0.255164  -0.239503
O    2.892363  -0.020660  -0.792010
H    3.090590   0.914597  -0.700112
H    0.503617   0.009156   1.578517
H    1.610407   1.338850   1.210501
H    2.253336  -0.194460   1.813035
H    0.827640   0.184015  -0.870042
H    1.468182  -1.337578  -0.270308
$end

$rem
JOBTYPE          eda
EDA2             1
METHOD           wB97M-V
BASIS            def2-TZVPPD
SYMMETRY         false
MEM_TOTAL        50000
MEM_STATIC       10000
THRESH           14
SCF_CONVERGENCE  8
XC_GRID          000099000590
NL_GRID          1
EDA_CLS_DISP     true
FD_MAT_VEC_PROD  FALSE
$end
--------------------------------------------------------------
 ----------------------------------------------------------------
             Standard Nuclear Orientation (Angstroms)
    I     Atom           X                Y                Z
 ----------------------------------------------------------------
    1      C       2.0477420021    -1.2005869729    -0.0714458874
    2      C       2.2433180378     0.2196664006    -0.5217826939
    3      O       1.6159770241     1.0638636234     0.4194999941
    4      H       1.7318820464     1.9771818461     0.1509417613
    5      H       2.5367560107    -1.8968674096    -0.7542964557
    6      H       0.9840319971    -1.4462699896    -0.0311541236
    7      H       2.4646719711    -1.3435888148     0.9272240050
    8      H       1.8121600689     0.3607692456    -1.5238315883
    9      H       3.3161170436     0.4473584467    -0.5973744726
   10      C      -1.4882470186    -0.2509429581     1.1738948049
   11      C      -1.6162729698     0.2551642261    -0.2395027755
   12      O      -2.8923629576     0.0206607086    -0.7920100084
   13      H      -3.0905899752    -0.9145963651    -0.7001127963
   14      H      -0.5036170264    -0.0091573122     1.5785170355
   15      H      -1.6104070370    -1.3388509868     1.2104998915
   16      H      -2.2533360299     0.1944585195     1.8130351554
   17      H      -0.8276399586    -0.1840142591    -0.8700421201
   18      H      -1.4681819516     1.3375782495    -0.2703068659
 ----------------------------------------------------------------
 Molecular Point Group                 C1    NOp =  1
 Largest Abelian Subgroup              C1    NOp =  1
 Nuclear Repulsion Energy =         250.97617206 hartrees
 There are       26 alpha and       26 beta electrons
 Requested basis set is def2-TZVPPD
 There are 164 shells and 432 basis functions

 Q-Chem warning in module libmdc/get_mega.C, line 171:

 Allowed MEM_STATIC has been capped at MEM_STATIC=8191.
 Reduce the value of MEM_STATIC to silence this warning.


 Total QAlloc Memory Limit  50000 MB
 Mega-Array Size      8007 MB
 MEM_STATIC part      8191 MB
 A cutoff of  1.0D-14 yielded  12460 shell pairs
 There are     85942 function pairs (    105692 Cartesian)
 Smallest overlap matrix eigenvalue = 7.57E-06

 Scale SEOQF with 1.000000e-01/1.000000e-01/1.000000e-01

 Standard Electronic Orientation quadrupole field applied
 Nucleus-field energy     =     0.0000000073 hartrees

 -----------------------------------------------------------------------
  General SCF calculation program by
  Eric Jon Sundstrom, Paul Horn, Yuezhi Mao, Dmitri Zuev, Alec White,
  David Stuck, Shaama M.S., Shane Yost, Joonho Lee, David Small,
  Daniel Levine, Susi Lehtola, Hugh Burton, Evgeny Epifanovsky,
  Bang C. Huynh
 -----------------------------------------------------------------------
================================================================
                 ALMO-EDA with the EDA2 driver                  
================================================================
 The second-generation ALMO-EDA (for DFT):                      
 P. R. Horn, Y. Mao and M. Head-Gordon, PCCP, 18, 23067 (2016)  
 Y. Mao et al. Annu. Rev. Phys. Chem. 72, 641 (2021)            
 Decomposition of the frozen energy:                            
 P. R. Horn, Y. Mao and M. Head-Gordon, JCP, 144, 114107 (2016) 
 FERF model for polarization:                                   
 P. R. Horn and M. Head-Gordon, JCP, 143, 114111 (2015)         
================================================================
 Using eda2 option set 1
 Option set summary: Frozen orbital wavefunction, initial wavefunction decomposition, and nDQ polarization.
--------------------------------
Printing EDA Options
--------------------------------
eda_child_super_basis      0
fragmo_guess_mode          0
child_mp                   1
child_mp_orders            232
cls_elec                   1
cls_disp                   1
scfmi_mode                 1
scfmi_occs                 0
scfmi_virts                0
frz_relax                  0
frz_relax_method           0
dc_pen_start               0
dc_pen_conv                0
dc_pen_increment           0
dc_pen_steps               0
dc_pen_thresh_factor       0
dc_pen_pre_newton_thresh   0
frz_ortho_decomp           1
frz_ortho_decomp_conv      6
plot_mo_ortho_frz          0
frgm_method                2
scfmi_freeze_ss            0
separate_rehyb             0
plot_diff_den              0
eda_nocv                   0
eda_vct_relax              1
disp_free_x                0
disp_free_c                0
eda_bsse                   0
eda_pct_a                  0
eda_covp                   0
--------------------------------
Attempting to make child job directory: /scratch/qchem139500//Frg1/
Attempting to make child job directory: /scratch/qchem139500//Frg2/
Creating input file /scratch/qchem139500/Frg1.input
using default PutDataFrgm: nothing
calling putenv with: QCSCRATCH=/scratch/qchem139500/ 
Spawning Job For Fragment 0
Done Job For Fragment 0
calling putenv with: QCSCRATCH=/scratch 
calling putenv with: QCTHREADS=6 
Creating input file /scratch/qchem139500/Frg2.input
using default PutDataFrgm: nothing
calling putenv with: QCSCRATCH=/scratch/qchem139500/ 
Spawning Job For Fragment 1
Done Job For Fragment 1
calling putenv with: QCSCRATCH=/scratch 
calling putenv with: QCTHREADS=6 
Doing General SCFMI
 Exchange:     0.1500 Hartree-Fock + 1.0000 wB97M-V + LR-HF
 Correlation:  1.0000 wB97M-V
 Using Euler-Maclaurin-Lebedev (99,590) quadrature formula
 Nonlocal Correlation:  VV10 with C = 0.0100 and b = 6.00 and scale = 1.00000
 Grid used for NLC:  SG-1 standard quadrature
performing fock build before subrot guess so that all methods have access
Printing subrot_rss_gen Method Specification:
Occupied Subspace Method is 0
Virtual Subspace Method is 0
Energy of the unrelaxed supersystem initial determinant -310.060992578899
write pseudocanon occs and virts to disk
write pseudocanon orbital energies to disk
Tolerance of ortho_decomp_scf: 1.00e-06
GDM subspace size: 20
Beginning the Orthogonal Decomposition of the Initial Supersystem Wavefunction
    1    -310.0389487500      5.51e-02     ortho_decomp Preconditoned Steepest Descent
    2    -310.0425367659      1.73e-03     ortho_decomp BFGS Step
    3    -310.0425531802      1.14e-04     ortho_decomp BFGS Step
    4    -310.0425531960      4.38e-06     ortho_decomp BFGS Step
    5    -310.0425531961      1.78e-07     ortho_decomp 00000 Convergence criterion met
 Hartree-Fock
 Hartree-Fock
 Hartree-Fock
 Exchange:     0.1500 Hartree-Fock + 1.0000 wB97M-V + LR-HF
 Correlation:  1.0000 wB97M-V
 Using Euler-Maclaurin-Lebedev (99,590) quadrature formula
 Nonlocal Correlation:  VV10 with C = 0.0100 and b = 6.00 and scale = 1.00000
 Grid used for NLC:  SG-1 standard quadrature
 Long-range K will be added via erf
 Coulomb attenuation parameter = 0.3 bohr**(-1)
 Nonlocal correlation = 2.042512535206e-01
Doing General SCFMI
 Exchange:     0.1500 Hartree-Fock + 1.0000 wB97M-V + LR-HF
 Correlation:  1.0000 wB97M-V
 Using Euler-Maclaurin-Lebedev (99,590) quadrature formula
 Nonlocal Correlation:  VV10 with C = 0.0100 and b = 6.00 and scale = 1.00000
 Grid used for NLC:  SG-1 standard quadrature
performing fock build at end of subrot_r(subrot) constructor so that all methods have access
<S^2> of initial wavefunction before polarization iterations 0.0000000000
Beginning iterations for the determination of the polarized wavefunction
Energy prior to optimization (guess energy) = -310.060992578899
Begin Timing: Total SCF Calculation
begin iterations for algorithm: DIIS         
the SCF tolerance is set to 1.00e-08
    1    -310.0609925789      1.33e-04     00000 
    2    -310.0614963788      5.29e-05     00000 
    3    -310.0615391743      2.99e-05     00000 
    4    -310.0615519494      9.97e-06     00000 
    5    -310.0615537357      3.19e-06     00000 
    6    -310.0615541014      1.46e-06     00000 
    7    -310.0615541794      5.20e-07     00000 
    8    -310.0615541904      2.19e-07     00000 
    9    -310.0615541913      1.12e-07     00000 
   10    -310.0615541914      3.46e-08     00000 
   11    -310.0615541915      1.50e-08     00000 
   12    -310.0615541915      6.67e-09     00000 Convergence criterion met
write pseudocanon occs and virts to disk
write pseudocanon orbital energies to disk
Timing for Total SCF: 287.00s (wall), 1724.85s (cpu)
<S^2> of polarized wavefunction after polarization iterations 0.0000000000
relaxing scfmi constraint to allow all rotations in the entire AO span
Doing General SCFMI
 Exchange:     0.1500 Hartree-Fock + 1.0000 wB97M-V + LR-HF
 Correlation:  1.0000 wB97M-V
 Using Euler-Maclaurin-Lebedev (99,590) quadrature formula
 Nonlocal Correlation:  VV10 with C = 0.0100 and b = 6.00 and scale = 1.00000
 Grid used for NLC:  SG-1 standard quadrature
performing fock build at end of subrot_r(subrot) constructor so that all methods have access
<S^2> of polarized wavefunction before ct-allowed iterations 0.0000000000
Beginning iterations for the determination of the CT-Allowed wavefunction
Energy prior to optimization (guess energy) = -310.061554191458
Begin Timing: Total SCF Calculation
begin iterations for algorithm: DIIS         
the SCF tolerance is set to 1.00e-08
    1    -310.0615541915      8.46e-05     00000 
    2    -310.0622628258      9.36e-06     00000 
    3    -310.0622820870      2.03e-06     00000 
    4    -310.0622825254      1.68e-06     00000 
    5    -310.0622827138      2.29e-07     00000 
    6    -310.0622827190      8.55e-08     00000 
    7    -310.0622827199      1.98e-08     00000 
    8    -310.0622827200      4.59e-09     00000 Convergence criterion met
write pseudocanon occs and virts to disk
write pseudocanon orbital energies to disk
Timing for Total SCF: 184.00s (wall), 1105.96s (cpu)
<S^2> of ct_allowed wavefunction after ct-allowed iterations 0.0000000000

================================
        Results of EDA2         
================================
Basic EDA Quantities
--------------------
Fragment Energies (Ha):
1 -155.0296085224
2 -155.0293594525
--------------------
  E_prp (kJ/mol) = 0.0000
  E_frz (kJ/mol) = -5.3157
  E_pol (kJ/mol) = -1.4745
  E_vct (kJ/mol) = -1.9128
  E_int (kJ/mol) = -8.7030
--------------------


Decomposition of frozen interaction energy
--------------------
  --------------------
  Orthogonal Frozen Decomposition:
  --------------------
     E_elec   (ELEC)   (kJ/mol) = -24.1100
     E_pauli  (PAULI)  (kJ/mol) = 33.0100
     E_disp   (DISP)   (kJ/mol) = -14.2157
  --------------------
  Classical Frozen Decomposition:
  --------------------
     E_cls_elec  (CLS ELEC)  (kJ/mol) = -9.6346
     E_mod_pauli (MOD PAULI) (kJ/mol) = 16.6715 (FRZ - CLS ELEC - CLS DISP)
     E_cls_disp  (CLS DISP)  (kJ/mol) = -12.3525
  --------------------
--------------------

Simplified EDA Summary (kJ/mol)
--------------------
 PREPARATION      0.0000
 FROZEN           -5.3157 (ELEC + PAULI + DISP)
[ELEC + PAULI = 7.0368, DISP = -12.3525]
 POLARIZATION    -1.4745
 CHARGE TRANSFER -1.9128
 TOTAL           -8.7030     (PRP + FRZ + POL + CT)
--------------------
 
 --------------------------------------------------------------
 
                    Orbital Energies (a.u.)
 --------------------------------------------------------------
 
 Alpha MOs
 -- Occupied --
-19.3382 -19.3238 -10.3921 -10.3776 -10.3330 -10.3220  -1.1597  -1.1457
 -0.8794  -0.8624  -0.7341  -0.7321  -0.6386  -0.6070  -0.5813  -0.5555
 -0.5375  -0.5185  -0.4898  -0.4765  -0.4716  -0.4642  -0.4416  -0.4204
 -0.3855  -0.3723
 -- Virtual --
  0.0304   0.0431   0.0544   0.0587   0.0751   0.0814   0.0859   0.0969
  0.1101   0.1160   0.1297   0.1328   0.1417   0.1541   0.1595   0.1660
  0.1757   0.1832   0.1868   0.1923   0.2000   0.2090   0.2184   0.2296
  0.2330   0.2448   0.2506   0.2538   0.2609   0.2651   0.2749   0.2796
  0.2910   0.2939   0.3011   0.3013   0.3124   0.3159   0.3188   0.3245
  0.3281   0.3315   0.3342   0.3456   0.3476   0.3516   0.3561   0.3634
  0.3652   0.3731   0.3781   0.3852   0.3888   0.3962   0.3984   0.4102
  0.4106   0.4156   0.4201   0.4350   0.4377   0.4431   0.4483   0.4503
  0.4606   0.4668   0.4716   0.4824   0.4857   0.4910   0.4977   0.5061
  0.5114   0.5139   0.5207   0.5285   0.5486   0.5522   0.5578   0.5661
  0.5721   0.5807   0.5846   0.5908   0.5964   0.6197   0.6316   0.6401
  0.6433   0.6523   0.6617   0.6766   0.6789   0.6885   0.6940   0.7079
  0.7143   0.7185   0.7337   0.7371   0.7554   0.7583   0.7622   0.7660
  0.7746   0.7825   0.7919   0.7960   0.8066   0.8150   0.8228   0.8288
  0.8379   0.8458   0.8628   0.8689   0.8801   0.9084   0.9372   0.9410
  0.9492   0.9636   0.9703   0.9864   1.0012   1.0147   1.0238   1.0381
  1.0583   1.0658   1.0746   1.0907   1.0971   1.1253   1.1413   1.1557
  1.1824   1.1891   1.2072   1.2177   1.2350   1.2418   1.2551   1.2586
  1.2646   1.2795   1.2896   1.2912   1.3093   1.3194   1.3322   1.3566
  1.3648   1.3764   1.3806   1.3913   1.3982   1.4209   1.4314   1.4408
  1.4556   1.4666   1.4931   1.4982   1.5131   1.5329   1.5527   1.5803
  1.6010   1.6131   1.6476   1.6491   1.6638   1.6753   1.6794   1.6893
  1.6970   1.7047   1.7175   1.7328   1.7539   1.7686   1.8086   1.8291
  1.8381   1.8491   1.9261   1.9723   1.9884   2.0111   2.0308   2.0447
  2.0623   2.0999   2.1249   2.1384   2.1707   2.1887   2.2256   2.2486
  2.2784   2.3033   2.3454   2.3691   2.4030   2.4079   2.4376   2.4683
  2.5018   2.5371   2.6952   2.6981   2.7250   2.7629   2.7768   2.8247
  2.8398   2.8528   2.8815   2.9005   2.9084   2.9181   2.9291   2.9403
  2.9490   2.9703   2.9861   3.0030   3.0171   3.0225   3.0457   3.0499
  3.0594   3.0742   3.0943   3.1077   3.1292   3.1406   3.1707   3.1868
  3.1953   3.2186   3.2329   3.2388   3.2500   3.2650   3.2812   3.2850
  3.2981   3.3003   3.3143   3.3231   3.3398   3.3493   3.3607   3.3876
  3.4295   3.4443   3.4614   3.4789   3.5009   3.5229   3.5422   3.5511
  3.5753   3.5928   3.6008   3.6099   3.6229   3.6351   3.6537   3.6782
  3.6997   3.7047   3.7450   3.7539   3.7704   3.7820   3.7831   3.8104
  3.8221   3.8546   3.8614   3.9090   3.9188   3.9310   3.9905   4.0008
  4.0154   4.0241   4.0363   4.0520   4.0618   4.0823   4.0927   4.1060
  4.1179   4.1420   4.1492   4.1498   4.1652   4.1866   4.1967   4.2046
  4.2357   4.2447   4.2575   4.2704   4.2902   4.2939   4.3058   4.3246
  4.3377   4.3696   4.3859   4.3898   4.4150   4.4511   4.4575   4.4712
  4.4802   4.5062   4.5181   4.5381   4.5654   4.5783   4.6124   4.6155
  4.6536   4.6702   4.6899   4.7056   4.7205   4.7432   4.8151   4.8260
  4.8445   4.8609   4.9340   4.9493   4.9616   4.9648   4.9993   5.0073
  5.0176   5.0256   5.0737   5.0828   5.1221   5.1545   5.2410   5.2630
  5.3020   5.3140   5.3203   5.3511   5.4071   5.4140   5.4244   5.4307
  5.4481   5.4516   5.4586   5.4900   5.5184   5.5322   5.5814   5.6004
  5.6276   5.6339   5.6575   5.6900   5.7466   5.7563   5.7634   5.7966
  5.8249   5.8389   5.9116   5.9600   6.1110   6.1258   6.2558   6.3104
  6.6628   6.6840   6.8258   6.8342   6.8763   6.8988   6.9561   6.9878
  7.0770   7.0834   7.3674   7.3981   7.5569   7.5619   7.7798   7.7991
 23.7549  23.7891  24.0640  24.1086  44.7982  44.8200
 --------------------------------------------------------------
 
          Ground-State Mulliken Net Atomic Charges

     Atom                 Charge (a.u.)
  ----------------------------------------
      1 C                    -0.865508
      2 C                    -0.330821
      3 O                    -0.347647
      4 H                     0.114686
      5 H                     0.329614
      6 H                     0.156311
      7 H                     0.266690
      8 H                     0.318993
      9 H                     0.374935
     10 C                    -1.032245
     11 C                     0.114169
     12 O                    -0.427090
     13 H                     0.131592
     14 H                     0.232401
     15 H                     0.279552
     16 H                     0.347686
     17 H                     0.123936
     18 H                     0.212747
  ----------------------------------------
  Sum of atomic charges =     0.000000

 -----------------------------------------------------------------
                    Cartesian Multipole Moments
 -----------------------------------------------------------------
    Charge (ESU x 10^10)
                -0.0000
    Dipole Moment (Debye)
         X       2.1025      Y      -0.5221      Z      -0.3867
       Tot       2.2006
    Quadrupole Moments (Debye-Ang)
        XX     -43.3108     XY       5.4183     YY     -35.2588
        XZ      -4.6463     YZ       0.2084     ZZ     -42.9752
    Octopole Moments (Debye-Ang^2)
       XXX      22.2085    XXY     -10.1965    XYY       0.0970
       YYY      14.9760    XXZ       3.3257    XYZ      -5.4007
       YYZ      -2.8206    XZZ       1.8367    YZZ       0.1265
       ZZZ      -0.8075
    Hexadecapole Moments (Debye-Ang^3)
      XXXX   -1116.1047   XXXY      64.3319   XXYY    -183.4725
      XYYY      33.3834   YYYY    -172.7241   XXXZ     -17.1368
      XXYZ      11.1013   XYYZ       4.9739   YYYZ       4.6920
      XXZZ    -222.5458   XYZZ       1.4374   YYZZ     -64.5541
      XZZZ       4.5054   YZZZ       3.0879   ZZZZ    -191.4410
 -----------------------------------------------------------------
 Total job time:  1502.06s(wall), 5501.89s(cpu) 
 Fri Feb 28 17:14:19 2025

        *************************************************************
        *                                                           *
        *  Thank you very much for using Q-Chem.  Have a nice day.  *
        *                                                           *
        *************************************************************


