
Running Job 1 of 1 004_ethanol_dimer_58_almo.inp
qchem 004_ethanol_dimer_58_almo.inp_159050.0 /scratch/qchem159050/ 6
/home/kchung25/qchem/5.4.0/exe/qcprog.exe_s 004_ethanol_dimer_58_almo.inp_159050.0 /scratch/qchem159050/
                  Welcome to Q-Chem
     A Quantum Leap Into The Future Of Chemistry


 Q-Chem 5.4, Q-Chem, Inc., Pleasanton, CA (2021)

 E. Epifanovsky,  A. T. B. Gilbert,  Xintian Feng,  Joonho Lee,  Yuezhi Mao,  
 N. Mardirossian,  P. Pokhilko,  A. White,  M. Wormit,  M. P. Coons,  
 A. L. Dempwolff,  Zhengting Gan,  D. Hait,  P. R. Horn,  L. D. Jacobson,  
 I. Kaliman,  J. Kussmann,  A. W. Lange,  Ka Un Lao,  D. S. Levine,  Jie Liu,  
 S. C. McKenzie,  A. F. Morrison,  K. Nanda,  F. Plasser,  D. R. Rehn,  
 M. L. Vidal,  Zhi-Qiang You,  Ying Zhu,  B. Alam,  B. Albrecht,  
 A. Aldossary,  E. Alguire,  J. H. Andersen,  D. Barton,  K. Begam,  A. Behn,  
 Y. A. Bernard,  E. J. Berquist,  H. Burton,  A. Carreras,  K. Carter-Fenk,  
 Romit Chakraborty,  A. D. Chien,  K. D. Closser,  V. Cofer-Shabica,  
 S. Dasgupta,  Jia Deng,  M. de Wergifosse,  M. Diedenhofen,  Hainam Do,  
 S. Ehlert,  Po-Tung Fang,  S. Fatehi,  Qingguo Feng,  T. Friedhoff,  
 J. Gayvert,  Qinghui Ge,  G. Gidofalvi,  M. Goldey,  J. Gomes,  
 C. Gonzalez-Espinoza,  S. Gulania,  A. Gunina,  M. W. D. Hanson-Heine,  
 P. H. P. Harbach,  A. W. Hauser,  M. F. Herbst,  M. Hernandez Vera,  
 M. Hodecker,  Z. C. Holden,  S. Houck,  Xunkun Huang,  Kerwin Hui,  
 B. C. Huynh,  M. Ivanov,  Hyunjun Ji,  Hanjie Jiang,  B. Kaduk,  S. Kaehler,  
 K. Khistyaev,  Jaehoon Kim,  P. Klunzinger,  Z. Koczor-Benda,  
 Joong Hoon Koh,  D. Kosenkov,  L. Koulias,  T. Kowalczyk,  C. M. Krauter,  
 K. Kue,  A. Kunitsa,  T. Kus,  A. Landau,  K. V. Lawler,  D. Lefrancois,  
 S. Lehtola,  Rain Li,  Yi-Pei Li,  Jiashu Liang,  M. Liebenthal,  
 Hung-Hsuan Lin,  You-Sheng Lin,  Fenglai Liu,  Kuan-Yu Liu,  
 M. Loipersberger,  A. Luenser,  A. Manjanath,  P. Manohar,  E. Mansoor,  
 S. F. Manzer,  Shan-Ping Mao,  A. V. Marenich,  T. Markovich,  S. Mason,  
 S. A. Maurer,  P. F. McLaughlin,  M. F. S. J. Menger,  J.-M. Mewes,  
 S. A. Mewes,  P. Morgante,  J. W. Mullinax,  K. J. Oosterbaan,  G. Paran,  
 Alexander C. Paul,  Suranjan K. Paul,  F. Pavosevic,  Zheng Pei,  S. Prager,  
 E. I. Proynov,  E. Ramos,  B. Rana,  A. E. Rask,  A. Rettig,  R. M. Richard,  
 F. Rob,  E. Rossomme,  T. Scheele,  M. Scheurer,  M. Schneider,  
 N. Sergueev,  S. M. Sharada,  W. Skomorowski,  D. W. Small,  C. J. Stein,  
 Yu-Chuan Su,  E. J. Sundstrom,  Zhen Tao,  J. Thirman,  T. Tsuchimochi,  
 N. M. Tubman,  S. P. Veccham,  O. Vydrov,  J. Wenzel,  J. Witte,  A. Yamada,  
 Kun Yao,  S. Yeganeh,  S. R. Yost,  A. Zech,  Igor Ying Zhang,  Xing Zhang,  
 Yu Zhang,  D. Zuev,  A. Aspuru-Guzik,  A. T. Bell,  N. A. Besley,  
 K. B. Bravaya,  B. R. Brooks,  D. Casanova,  Jeng-Da Chai,  S. Coriani,  
 C. J. Cramer,  A. E. DePrince, III,  R. A. DiStasio Jr.,  A. Dreuw,  
 B. D. Dunietz,  T. R. Furlani,  W. A. Goddard III,  S. Grimme,  
 S. Hammes-Schiffer,  T. Head-Gordon,  W. J. Hehre,  Chao-Ping Hsu,  
 T.-C. Jagau,  Yousung Jung,  A. Klamt,  Jing Kong,  D. S. Lambrecht,  
 WanZhen Liang,  N. J. Mayhall,  C. W. McCurdy,  J. B. Neaton,  T. Neudecker,  
 C. Ochsenfeld,  J. A. Parkhill,  R. Peverati,  V. A. Rassolov,  Yihan Shao,  
 L. V. Slipchenko,  R. P. Steele,  J. E. Subotnik,  A. J. W. Thom,  
 A. Tkatchenko,  D. G. Truhlar,  T. Van Voorhis,  T. A. Wesolowski,  
 K. B. Whaley,  H. L. Woodcock III,  P. M. Zimmerman,  S. Faraji,  
 P. M. W. Gill,  M. Head-Gordon,  J. M. Herbert,  A. I. Krylov

 Additional authors since Version 5.4.0: 
 Chandrima Chakravarty,  L. Cunha,  R. Kang,  Yongbin Kim,  S. Kotaru,  
 Shaozhi Li,  Xiangyuan Li,  F. Matz,  A. Molle,  V. Parravicini,  
 Haisheng Ren,  Hengyuan Shen,  Yingli Su,  Hung-Yi Tsai,  C. Utku,  
 Fang Wang,  Jeff Yang,  F. Zeller

 Contributors to earlier versions of Q-Chem not listed above: 
 R. D. Adamson,  B. Austin,  R. Baer,  J. Baker,  G. J. O. Beran,  
 K. Brandhorst,  S. T. Brown,  E. F. C. Byrd,  Arup K. Chakraborty,  
 G. K. L. Chan,  Chun-Min Chang,  Yunqing Chen,  C.-L. Cheng,  
 Siu Hung Chien,  D. M. Chipman,  D. L. Crittenden,  H. Dachsel,  
 R. J. Doerksen,  A. D. Dutoi,  R. G. Edgar,  J. Fosso-Tande,  
 L. Fusti-Molnar,  D. Ghosh,  A. Ghysels,  A. Golubeva-Zadorozhnaya,  
 J. Gonthier,  M. S. Gordon,  S. R. Gwaltney,  G. Hawkins,  J. E. Herr,  
 A. Heyden,  S. Hirata,  E. G. Hohenstein,  G. Kedziora,  F. J. Keil,  
 C. Kelley,  Jihan Kim,  R. A. King,  R. Z. Khaliullin,  P. P. Korambath,  
 W. Kurlancheek,  A. Laurent,  A. M. Lee,  M. S. Lee,  S. V. Levchenko,  
 Ching Yeh Lin,  D. Liotard,  E. Livshits,  R. C. Lochan,  I. Lotan,  
 L. A. Martinez-Martinez,  P. E. Maslen,  N. Nair,  D. P. O'Neill,  
 D. Neuhauser,  E. Neuscamman,  C. M. Oana,  R. Olivares-Amaya,  R. Olson,  
 T. M. Perrine,  B. Peters,  P. A. Pieniazek,  A. Prociuk,  Y. M. Rhee,  
 J. Ritchie,  M. A. Rohrdanz,  E. Rosta,  N. J. Russ,  H. F. Schaefer III,  
 M. W. Schmidt,  N. E. Schultz,  S. Sharma,  N. Shenvi,  C. D. Sherrill,  
 A. C. Simmonett,  A. Sodt,  T. Stein,  D. Stuck,  K. S. Thanthiriwatte,  
 V. Vanovschi,  L. Vogt,  Tao Wang,  A. Warshel,  M. A. Watson,  
 C. F. Williams,  Q. Wu,  X. Xu,  Jun Yang,  W. Zhang,  Yan Zhao

   Please cite Q-Chem as follows:
  "Software for the frontiers of quantum chemistry:
   An overview of developments in the Q-Chem 5 package"
   J. Chem. Phys. 155, 084801 (2021)
   https://doi.org/10.1063/5.0055522 (open access)

 Q-Chem 5.4.2 for Intel X86 EM64T Linux

 Parts of Q-Chem use Armadillo 9.900.5 (Nocturnal Misbehaviour).
 http://arma.sourceforge.net/

 Q-Chem begins on Fri Feb 28 23:53:42 2025  

 Host: 
0

     Scratch files written to /scratch/qchem159050//
 Dec1321 |scratch|qcdevops|jenkins|workspace|build_RNUM 5684   
 Processing $rem in /home/kchung25/qchem/5.4.0/config/preferences:
 Processing $rem in /home/kchung25/.qchemrc:

 Q-Chem warning in module libgen/rem_setup.C, line 3079:

 Neither GIA nor STOLL is specified by user. Use STOLL as the default


 Checking the input file for inconsistencies... 	...done.

--------------------------------------------------------------
User input:
--------------------------------------------------------------
$molecule
0 1
--
0 1
C   -2.030209   0.997443  -0.592376
C   -1.989538  -0.031828   0.501206
O   -1.814960  -1.297402  -0.098206
H   -1.828193  -1.971728   0.583684
H   -2.150918   1.999901  -0.178206
H   -2.860130   0.800002  -1.272927
H   -1.104947   0.974569  -1.172596
H   -2.918904   0.000104   1.087134
H   -1.163856   0.188909   1.195581
--
0 1
C    1.633417   1.259863   0.300772
C    1.550833  -0.238458   0.213553
O    2.729829  -0.701850  -0.406992
H    2.645768  -1.642561  -0.571650
H    0.748347   1.670689   0.791741
H    1.707554   1.695977  -0.697447
H    2.515552   1.563226   0.867642
H    0.658644  -0.540506  -0.353616
H    1.445112  -0.666676   1.223317
$end

$rem
JOBTYPE          eda
EDA2             1
METHOD           wB97M-V
BASIS            def2-TZVPPD
SYMMETRY         false
MEM_TOTAL        50000
MEM_STATIC       10000
THRESH           14
SCF_CONVERGENCE  8
XC_GRID          000099000590
NL_GRID          1
EDA_CLS_DISP     true
FD_MAT_VEC_PROD  FALSE
$end
--------------------------------------------------------------
 ----------------------------------------------------------------
             Standard Nuclear Orientation (Angstroms)
    I     Atom           X                Y                Z
 ----------------------------------------------------------------
    1      C      -2.0302090503    -0.9974426383     0.5923761045
    2      C      -1.9895379888     0.0318283542    -0.5012059002
    3      O      -1.8149598719     1.2974023421     0.0982060913
    4      H      -1.8281928308     1.9717283406    -0.5836839110
    5      H      -2.1509181416    -1.9999006300     0.1782061109
    6      H      -2.8601300196    -0.8000015674     1.2729271214
    7      H      -1.1049470361    -0.9745687123     1.1725960848
    8      H      -2.9189040038    -0.0001035715    -1.0871338804
    9      H      -1.1638560217    -0.1889087164    -1.1955809169
   10      C       1.6334169092    -1.2598629433    -0.3007719722
   11      C       1.5508330343     0.2384580638    -0.2135529761
   12      O       2.7298290856     0.7018499692     0.4069919971
   13      H       2.6457681666     1.6425609767     0.5716499954
   14      H       0.7483468649    -1.6706888723    -0.7917409518
   15      H       1.7075538944    -1.6959769456     0.6974470279
   16      H       2.5155518722    -1.5632260180    -0.8676419897
   17      H       0.6586440712     0.5405061394     0.3536160417
   18      H       1.4451120482     0.6666760687    -1.2233169755
 ----------------------------------------------------------------
 Molecular Point Group                 C1    NOp =  1
 Largest Abelian Subgroup              C1    NOp =  1
 Nuclear Repulsion Energy =         251.57780744 hartrees
 There are       26 alpha and       26 beta electrons
 Requested basis set is def2-TZVPPD
 There are 164 shells and 432 basis functions

 Q-Chem warning in module libmdc/get_mega.C, line 171:

 Allowed MEM_STATIC has been capped at MEM_STATIC=8191.
 Reduce the value of MEM_STATIC to silence this warning.


 Total QAlloc Memory Limit  50000 MB
 Mega-Array Size      8007 MB
 MEM_STATIC part      8191 MB
 A cutoff of  1.0D-14 yielded  12485 shell pairs
 There are     86041 function pairs (    105746 Cartesian)
 Smallest overlap matrix eigenvalue = 6.06E-06

 Scale SEOQF with 1.000000e-01/1.000000e-01/1.000000e-01

 Standard Electronic Orientation quadrupole field applied
 Nucleus-field energy     =     0.0000000098 hartrees

 -----------------------------------------------------------------------
  General SCF calculation program by
  Eric Jon Sundstrom, Paul Horn, Yuezhi Mao, Dmitri Zuev, Alec White,
  David Stuck, Shaama M.S., Shane Yost, Joonho Lee, David Small,
  Daniel Levine, Susi Lehtola, Hugh Burton, Evgeny Epifanovsky,
  Bang C. Huynh
 -----------------------------------------------------------------------
================================================================
                 ALMO-EDA with the EDA2 driver                  
================================================================
 The second-generation ALMO-EDA (for DFT):                      
 P. R. Horn, Y. Mao and M. Head-Gordon, PCCP, 18, 23067 (2016)  
 Y. Mao et al. Annu. Rev. Phys. Chem. 72, 641 (2021)            
 Decomposition of the frozen energy:                            
 P. R. Horn, Y. Mao and M. Head-Gordon, JCP, 144, 114107 (2016) 
 FERF model for polarization:                                   
 P. R. Horn and M. Head-Gordon, JCP, 143, 114111 (2015)         
================================================================
 Using eda2 option set 1
 Option set summary: Frozen orbital wavefunction, initial wavefunction decomposition, and nDQ polarization.
--------------------------------
Printing EDA Options
--------------------------------
eda_child_super_basis      0
fragmo_guess_mode          0
child_mp                   1
child_mp_orders            232
cls_elec                   1
cls_disp                   1
scfmi_mode                 1
scfmi_occs                 0
scfmi_virts                0
frz_relax                  0
frz_relax_method           0
dc_pen_start               0
dc_pen_conv                0
dc_pen_increment           0
dc_pen_steps               0
dc_pen_thresh_factor       0
dc_pen_pre_newton_thresh   0
frz_ortho_decomp           1
frz_ortho_decomp_conv      6
plot_mo_ortho_frz          0
frgm_method                2
scfmi_freeze_ss            0
separate_rehyb             0
plot_diff_den              0
eda_nocv                   0
eda_vct_relax              1
disp_free_x                0
disp_free_c                0
eda_bsse                   0
eda_pct_a                  0
eda_covp                   0
--------------------------------
Attempting to make child job directory: /scratch/qchem159050//Frg1/
Attempting to make child job directory: /scratch/qchem159050//Frg2/
Creating input file /scratch/qchem159050/Frg1.input
using default PutDataFrgm: nothing
calling putenv with: QCSCRATCH=/scratch/qchem159050/ 
Spawning Job For Fragment 0
Done Job For Fragment 0
calling putenv with: QCSCRATCH=/scratch 
calling putenv with: QCTHREADS=6 
Creating input file /scratch/qchem159050/Frg2.input
using default PutDataFrgm: nothing
calling putenv with: QCSCRATCH=/scratch/qchem159050/ 
Spawning Job For Fragment 1
Done Job For Fragment 1
calling putenv with: QCSCRATCH=/scratch 
calling putenv with: QCTHREADS=6 
Doing General SCFMI
 Exchange:     0.1500 Hartree-Fock + 1.0000 wB97M-V + LR-HF
 Correlation:  1.0000 wB97M-V
 Using Euler-Maclaurin-Lebedev (99,590) quadrature formula
 Nonlocal Correlation:  VV10 with C = 0.0100 and b = 6.00 and scale = 1.00000
 Grid used for NLC:  SG-1 standard quadrature
performing fock build before subrot guess so that all methods have access
Printing subrot_rss_gen Method Specification:
Occupied Subspace Method is 0
Virtual Subspace Method is 0
Energy of the unrelaxed supersystem initial determinant -310.060724289273
write pseudocanon occs and virts to disk
write pseudocanon orbital energies to disk
Tolerance of ortho_decomp_scf: 1.00e-06
GDM subspace size: 20
Beginning the Orthogonal Decomposition of the Initial Supersystem Wavefunction
    1    -310.0392418665      4.70e-02     ortho_decomp Preconditoned Steepest Descent
    2    -310.0419169704      1.40e-03     ortho_decomp BFGS Step
    3    -310.0419277822      9.37e-05     ortho_decomp BFGS Step
    4    -310.0419277962      4.05e-06     ortho_decomp BFGS Step
    5    -310.0419277963      1.78e-07     ortho_decomp 00000 Convergence criterion met
 Hartree-Fock
 Hartree-Fock
 Hartree-Fock
 Exchange:     0.1500 Hartree-Fock + 1.0000 wB97M-V + LR-HF
 Correlation:  1.0000 wB97M-V
 Using Euler-Maclaurin-Lebedev (99,590) quadrature formula
 Nonlocal Correlation:  VV10 with C = 0.0100 and b = 6.00 and scale = 1.00000
 Grid used for NLC:  SG-1 standard quadrature
 Long-range K will be added via erf
 Coulomb attenuation parameter = 0.3 bohr**(-1)
 Nonlocal correlation = 2.040952386385e-01
Doing General SCFMI
 Exchange:     0.1500 Hartree-Fock + 1.0000 wB97M-V + LR-HF
 Correlation:  1.0000 wB97M-V
 Using Euler-Maclaurin-Lebedev (99,590) quadrature formula
 Nonlocal Correlation:  VV10 with C = 0.0100 and b = 6.00 and scale = 1.00000
 Grid used for NLC:  SG-1 standard quadrature
performing fock build at end of subrot_r(subrot) constructor so that all methods have access
<S^2> of initial wavefunction before polarization iterations 0.0000000000
Beginning iterations for the determination of the polarized wavefunction
Energy prior to optimization (guess energy) = -310.060724289273
Begin Timing: Total SCF Calculation
begin iterations for algorithm: DIIS         
the SCF tolerance is set to 1.00e-08
    1    -310.0607242893      1.23e-04     00000 
    2    -310.0611758088      4.37e-05     00000 
    3    -310.0612118855      2.57e-05     00000 
    4    -310.0612217768      9.15e-06     00000 
    5    -310.0612233198      3.32e-06     00000 
    6    -310.0612237062      1.56e-06     00000 
    7    -310.0612237761      6.74e-07     00000 
    8    -310.0612237880      2.22e-07     00000 
    9    -310.0612237887      9.66e-08     00000 
   10    -310.0612237888      5.32e-08     00000 
   11    -310.0612237889      2.80e-08     00000 
   12    -310.0612237889      8.82e-09     00000 Convergence criterion met
write pseudocanon occs and virts to disk
write pseudocanon orbital energies to disk
Timing for Total SCF: 293.00s (wall), 1753.92s (cpu)
<S^2> of polarized wavefunction after polarization iterations 0.0000000000
relaxing scfmi constraint to allow all rotations in the entire AO span
Doing General SCFMI
 Exchange:     0.1500 Hartree-Fock + 1.0000 wB97M-V + LR-HF
 Correlation:  1.0000 wB97M-V
 Using Euler-Maclaurin-Lebedev (99,590) quadrature formula
 Nonlocal Correlation:  VV10 with C = 0.0100 and b = 6.00 and scale = 1.00000
 Grid used for NLC:  SG-1 standard quadrature
performing fock build at end of subrot_r(subrot) constructor so that all methods have access
<S^2> of polarized wavefunction before ct-allowed iterations 0.0000000000
Beginning iterations for the determination of the CT-Allowed wavefunction
Energy prior to optimization (guess energy) = -310.061223788867
Begin Timing: Total SCF Calculation
begin iterations for algorithm: DIIS         
the SCF tolerance is set to 1.00e-08
    1    -310.0612237889      8.90e-05     00000 
    2    -310.0620219964      1.01e-05     00000 
    3    -310.0620439075      2.11e-06     00000 
    4    -310.0620443954      1.59e-06     00000 
    5    -310.0620445734      2.70e-07     00000 
    6    -310.0620445794      9.54e-08     00000 
    7    -310.0620445803      2.16e-08     00000 
    8    -310.0620445804      3.96e-09     00000 Convergence criterion met
write pseudocanon occs and virts to disk
write pseudocanon orbital energies to disk
Timing for Total SCF: 186.00s (wall), 1120.58s (cpu)
<S^2> of ct_allowed wavefunction after ct-allowed iterations 0.0000000000

================================
        Results of EDA2         
================================
Basic EDA Quantities
--------------------
Fragment Energies (Ha):
1 -155.0295928085
2 -155.0295130900
--------------------
  E_prp (kJ/mol) = 0.0000
  E_frz (kJ/mol) = -4.2491
  E_pol (kJ/mol) = -1.3115
  E_vct (kJ/mol) = -2.1550
  E_int (kJ/mol) = -7.7156
--------------------


Decomposition of frozen interaction energy
--------------------
  --------------------
  Orthogonal Frozen Decomposition:
  --------------------
     E_elec   (ELEC)   (kJ/mol) = -23.1289
     E_pauli  (PAULI)  (kJ/mol) = 34.2128
     E_disp   (DISP)   (kJ/mol) = -15.3330
  --------------------
  Classical Frozen Decomposition:
  --------------------
     E_cls_elec  (CLS ELEC)  (kJ/mol) = -8.5394
     E_mod_pauli (MOD PAULI) (kJ/mol) = 17.8163 (FRZ - CLS ELEC - CLS DISP)
     E_cls_disp  (CLS DISP)  (kJ/mol) = -13.5261
  --------------------
--------------------

Simplified EDA Summary (kJ/mol)
--------------------
 PREPARATION      0.0000
 FROZEN           -4.2491 (ELEC + PAULI + DISP)
[ELEC + PAULI = 9.2769, DISP = -13.5261]
 POLARIZATION    -1.3115
 CHARGE TRANSFER -2.1550
 TOTAL           -7.7156     (PRP + FRZ + POL + CT)
--------------------
 
 --------------------------------------------------------------
 
                    Orbital Energies (a.u.)
 --------------------------------------------------------------
 
 Alpha MOs
 -- Occupied --
-19.3380 -19.3271 -10.3920 -10.3808 -10.3316 -10.3254  -1.1596  -1.1487
 -0.8795  -0.8692  -0.7318  -0.7229  -0.6383  -0.6301  -0.5839  -0.5689
 -0.5178  -0.5084  -0.4885  -0.4828  -0.4722  -0.4629  -0.4432  -0.4313
 -0.3869  -0.3720
 -- Virtual --
  0.0280   0.0460   0.0509   0.0585   0.0768   0.0843   0.0876   0.0950
  0.0981   0.1196   0.1307   0.1366   0.1479   0.1521   0.1566   0.1638
  0.1731   0.1778   0.1852   0.1937   0.1977   0.2105   0.2194   0.2306
  0.2315   0.2444   0.2513   0.2583   0.2645   0.2742   0.2761   0.2872
  0.2916   0.2941   0.2975   0.3048   0.3110   0.3120   0.3177   0.3256
  0.3287   0.3310   0.3388   0.3437   0.3455   0.3487   0.3540   0.3608
  0.3646   0.3681   0.3803   0.3866   0.3936   0.3972   0.4037   0.4079
  0.4140   0.4210   0.4261   0.4282   0.4466   0.4487   0.4518   0.4591
  0.4652   0.4704   0.4750   0.4859   0.4879   0.4920   0.4986   0.5044
  0.5139   0.5220   0.5250   0.5366   0.5468   0.5510   0.5600   0.5661
  0.5732   0.5854   0.5876   0.6022   0.6099   0.6255   0.6331   0.6401
  0.6493   0.6623   0.6695   0.6858   0.6914   0.6977   0.7040   0.7063
  0.7257   0.7331   0.7363   0.7389   0.7502   0.7568   0.7663   0.7690
  0.7705   0.7786   0.7870   0.7932   0.8005   0.8008   0.8212   0.8326
  0.8343   0.8477   0.8622   0.8763   0.8868   0.9156   0.9187   0.9333
  0.9395   0.9571   0.9795   0.9909   1.0005   1.0220   1.0334   1.0472
  1.0550   1.0638   1.0674   1.0896   1.1115   1.1332   1.1552   1.1660
  1.1731   1.1886   1.1974   1.2118   1.2290   1.2419   1.2497   1.2554
  1.2658   1.2704   1.2784   1.2894   1.3157   1.3222   1.3319   1.3442
  1.3523   1.3794   1.3868   1.3963   1.4148   1.4158   1.4295   1.4458
  1.4657   1.4710   1.4875   1.5070   1.5105   1.5185   1.5364   1.5637
  1.5695   1.5898   1.6320   1.6530   1.6613   1.6731   1.6746   1.6918
  1.7021   1.7139   1.7233   1.7375   1.7784   1.7829   1.7924   1.8171
  1.8381   1.8498   1.9522   1.9544   1.9789   1.9965   2.0044   2.0238
  2.0625   2.0983   2.1115   2.1325   2.1701   2.1906   2.2377   2.2702
  2.2908   2.3121   2.3445   2.3540   2.3931   2.4064   2.4231   2.4646
  2.5124   2.5284   2.6985   2.7166   2.7242   2.7346   2.7540   2.8107
  2.8544   2.8680   2.8752   2.8893   2.9028   2.9220   2.9253   2.9373
  2.9560   2.9714   2.9868   2.9944   3.0025   3.0174   3.0267   3.0364
  3.0575   3.0823   3.0947   3.1001   3.1428   3.1451   3.1716   3.1882
  3.2048   3.2211   3.2264   3.2337   3.2472   3.2586   3.2776   3.2843
  3.2925   3.2979   3.3092   3.3128   3.3428   3.3477   3.3673   3.3967
  3.4452   3.4534   3.4753   3.4916   3.5224   3.5308   3.5456   3.5616
  3.5788   3.5823   3.5845   3.5947   3.6186   3.6199   3.6349   3.6452
  3.7047   3.7112   3.7393   3.7571   3.7695   3.7770   3.7913   3.7982
  3.8310   3.8459   3.9103   3.9226   3.9280   3.9480   3.9981   4.0047
  4.0127   4.0219   4.0380   4.0534   4.0727   4.0772   4.0947   4.1058
  4.1180   4.1391   4.1427   4.1520   4.1668   4.1741   4.1896   4.2094
  4.2205   4.2366   4.2565   4.2731   4.2833   4.2882   4.3190   4.3237
  4.3301   4.3463   4.3769   4.3879   4.4330   4.4444   4.4739   4.4871
  4.4963   4.5087   4.5332   4.5488   4.5739   4.5866   4.5913   4.6449
  4.6519   4.6746   4.6850   4.6923   4.7159   4.7365   4.8333   4.8428
  4.8674   4.8956   4.9358   4.9487   4.9548   4.9580   4.9730   4.9885
  5.0184   5.0310   5.0437   5.0743   5.1100   5.1421   5.2490   5.2655
  5.3041   5.3145   5.3296   5.3306   5.4004   5.4190   5.4251   5.4273
  5.4401   5.4616   5.4739   5.5004   5.5173   5.5304   5.5623   5.5699
  5.6336   5.6430   5.6510   5.6787   5.7479   5.7691   5.7962   5.8054
  5.8324   5.8508   5.9579   5.9653   6.1132   6.1235   6.2539   6.2674
  6.6760   6.6817   6.8249   6.8297   6.8754   6.8870   6.9563   6.9590
  7.0621   7.0713   7.3631   7.3812   7.5578   7.5658   7.7768   7.7893
 23.7632  23.8190  24.0673  24.1045  44.8026  44.8553
 --------------------------------------------------------------
 
          Ground-State Mulliken Net Atomic Charges

     Atom                 Charge (a.u.)
  ----------------------------------------
      1 C                    -1.003147
      2 C                    -0.194681
      3 O                    -0.391976
      4 H                     0.130912
      5 H                     0.283653
      6 H                     0.331129
      7 H                     0.231577
      8 H                     0.368617
      9 H                     0.242940
     10 C                    -0.983377
     11 C                    -0.022795
     12 O                    -0.413264
     13 H                     0.133846
     14 H                     0.240301
     15 H                     0.266077
     16 H                     0.323451
     17 H                     0.172863
     18 H                     0.283873
  ----------------------------------------
  Sum of atomic charges =     0.000000

 -----------------------------------------------------------------
                    Cartesian Multipole Moments
 -----------------------------------------------------------------
    Charge (ESU x 10^10)
                 0.0000
    Dipole Moment (Debye)
         X      -1.6252      Y       0.6487      Z      -1.7397
       Tot       2.4675
    Quadrupole Moments (Debye-Ang)
        XX     -46.3925     XY       2.4103     YY     -35.7688
        XZ       1.8598     YZ      -1.8971     ZZ     -40.5069
    Octopole Moments (Debye-Ang^2)
       XXX     -23.6864    XXY       5.7767    XYY       6.7518
       YYY      24.1306    XXZ      -7.7353    XYZ       7.3498
       YYZ      -2.5476    XZZ      -0.7480    YZZ       4.5012
       ZZZ       0.8659
    Hexadecapole Moments (Debye-Ang^3)
      XXXX   -1099.6951   XXXY      10.1053   XXYY    -190.1899
      XYYY       8.7176   YYYY    -257.8036   XXXZ       5.3856
      XXYZ      -1.7758   XYYZ      19.6991   YYYZ      -3.3595
      XXZZ    -187.7608   XYZZ      -1.5527   YYZZ     -64.6102
      XZZZ       3.9398   YZZZ      -1.2114   ZZZZ    -120.2489
 -----------------------------------------------------------------
 Total job time:  1520.24s(wall), 5625.20s(cpu) 
 Sat Mar  1 00:19:02 2025

        *************************************************************
        *                                                           *
        *  Thank you very much for using Q-Chem.  Have a nice day.  *
        *                                                           *
        *************************************************************


