
Running Job 1 of 1 004_ethanol_dimer_21_almo.inp
qchem 004_ethanol_dimer_21_almo.inp_115736.0 /scratch/qchem115736/ 6
/home/kchung25/qchem/5.4.0/exe/qcprog.exe_s 004_ethanol_dimer_21_almo.inp_115736.0 /scratch/qchem115736/
                  Welcome to Q-Chem
     A Quantum Leap Into The Future Of Chemistry


 Q-Chem 5.4, Q-Chem, Inc., Pleasanton, CA (2021)

 E. Epifanovsky,  A. T. B. Gilbert,  Xintian Feng,  Joonho Lee,  Yuezhi Mao,  
 N. Mardirossian,  P. Pokhilko,  A. White,  M. Wormit,  M. P. Coons,  
 A. L. Dempwolff,  Zhengting Gan,  D. Hait,  P. R. Horn,  L. D. Jacobson,  
 I. Kaliman,  J. Kussmann,  A. W. Lange,  Ka Un Lao,  D. S. Levine,  Jie Liu,  
 S. C. McKenzie,  A. F. Morrison,  K. Nanda,  F. Plasser,  D. R. Rehn,  
 M. L. Vidal,  Zhi-Qiang You,  Ying Zhu,  B. Alam,  B. Albrecht,  
 A. Aldossary,  E. Alguire,  J. H. Andersen,  D. Barton,  K. Begam,  A. Behn,  
 Y. A. Bernard,  E. J. Berquist,  H. Burton,  A. Carreras,  K. Carter-Fenk,  
 Romit Chakraborty,  A. D. Chien,  K. D. Closser,  V. Cofer-Shabica,  
 S. Dasgupta,  Jia Deng,  M. de Wergifosse,  M. Diedenhofen,  Hainam Do,  
 S. Ehlert,  Po-Tung Fang,  S. Fatehi,  Qingguo Feng,  T. Friedhoff,  
 J. Gayvert,  Qinghui Ge,  G. Gidofalvi,  M. Goldey,  J. Gomes,  
 C. Gonzalez-Espinoza,  S. Gulania,  A. Gunina,  M. W. D. Hanson-Heine,  
 P. H. P. Harbach,  A. W. Hauser,  M. F. Herbst,  M. Hernandez Vera,  
 M. Hodecker,  Z. C. Holden,  S. Houck,  Xunkun Huang,  Kerwin Hui,  
 B. C. Huynh,  M. Ivanov,  Hyunjun Ji,  Hanjie Jiang,  B. Kaduk,  S. Kaehler,  
 K. Khistyaev,  Jaehoon Kim,  P. Klunzinger,  Z. Koczor-Benda,  
 Joong Hoon Koh,  D. Kosenkov,  L. Koulias,  T. Kowalczyk,  C. M. Krauter,  
 K. Kue,  A. Kunitsa,  T. Kus,  A. Landau,  K. V. Lawler,  D. Lefrancois,  
 S. Lehtola,  Rain Li,  Yi-Pei Li,  Jiashu Liang,  M. Liebenthal,  
 Hung-Hsuan Lin,  You-Sheng Lin,  Fenglai Liu,  Kuan-Yu Liu,  
 M. Loipersberger,  A. Luenser,  A. Manjanath,  P. Manohar,  E. Mansoor,  
 S. F. Manzer,  Shan-Ping Mao,  A. V. Marenich,  T. Markovich,  S. Mason,  
 S. A. Maurer,  P. F. McLaughlin,  M. F. S. J. Menger,  J.-M. Mewes,  
 S. A. Mewes,  P. Morgante,  J. W. Mullinax,  K. J. Oosterbaan,  G. Paran,  
 Alexander C. Paul,  Suranjan K. Paul,  F. Pavosevic,  Zheng Pei,  S. Prager,  
 E. I. Proynov,  E. Ramos,  B. Rana,  A. E. Rask,  A. Rettig,  R. M. Richard,  
 F. Rob,  E. Rossomme,  T. Scheele,  M. Scheurer,  M. Schneider,  
 N. Sergueev,  S. M. Sharada,  W. Skomorowski,  D. W. Small,  C. J. Stein,  
 Yu-Chuan Su,  E. J. Sundstrom,  Zhen Tao,  J. Thirman,  T. Tsuchimochi,  
 N. M. Tubman,  S. P. Veccham,  O. Vydrov,  J. Wenzel,  J. Witte,  A. Yamada,  
 Kun Yao,  S. Yeganeh,  S. R. Yost,  A. Zech,  Igor Ying Zhang,  Xing Zhang,  
 Yu Zhang,  D. Zuev,  A. Aspuru-Guzik,  A. T. Bell,  N. A. Besley,  
 K. B. Bravaya,  B. R. Brooks,  D. Casanova,  Jeng-Da Chai,  S. Coriani,  
 C. J. Cramer,  A. E. DePrince, III,  R. A. DiStasio Jr.,  A. Dreuw,  
 B. D. Dunietz,  T. R. Furlani,  W. A. Goddard III,  S. Grimme,  
 S. Hammes-Schiffer,  T. Head-Gordon,  W. J. Hehre,  Chao-Ping Hsu,  
 T.-C. Jagau,  Yousung Jung,  A. Klamt,  Jing Kong,  D. S. Lambrecht,  
 WanZhen Liang,  N. J. Mayhall,  C. W. McCurdy,  J. B. Neaton,  T. Neudecker,  
 C. Ochsenfeld,  J. A. Parkhill,  R. Peverati,  V. A. Rassolov,  Yihan Shao,  
 L. V. Slipchenko,  R. P. Steele,  J. E. Subotnik,  A. J. W. Thom,  
 A. Tkatchenko,  D. G. Truhlar,  T. Van Voorhis,  T. A. Wesolowski,  
 K. B. Whaley,  H. L. Woodcock III,  P. M. Zimmerman,  S. Faraji,  
 P. M. W. Gill,  M. Head-Gordon,  J. M. Herbert,  A. I. Krylov

 Additional authors since Version 5.4.0: 
 Chandrima Chakravarty,  L. Cunha,  R. Kang,  Yongbin Kim,  S. Kotaru,  
 Shaozhi Li,  Xiangyuan Li,  F. Matz,  A. Molle,  V. Parravicini,  
 Haisheng Ren,  Hengyuan Shen,  Yingli Su,  Hung-Yi Tsai,  C. Utku,  
 Fang Wang,  Jeff Yang,  F. Zeller

 Contributors to earlier versions of Q-Chem not listed above: 
 R. D. Adamson,  B. Austin,  R. Baer,  J. Baker,  G. J. O. Beran,  
 K. Brandhorst,  S. T. Brown,  E. F. C. Byrd,  Arup K. Chakraborty,  
 G. K. L. Chan,  Chun-Min Chang,  Yunqing Chen,  C.-L. Cheng,  
 Siu Hung Chien,  D. M. Chipman,  D. L. Crittenden,  H. Dachsel,  
 R. J. Doerksen,  A. D. Dutoi,  R. G. Edgar,  J. Fosso-Tande,  
 L. Fusti-Molnar,  D. Ghosh,  A. Ghysels,  A. Golubeva-Zadorozhnaya,  
 J. Gonthier,  M. S. Gordon,  S. R. Gwaltney,  G. Hawkins,  J. E. Herr,  
 A. Heyden,  S. Hirata,  E. G. Hohenstein,  G. Kedziora,  F. J. Keil,  
 C. Kelley,  Jihan Kim,  R. A. King,  R. Z. Khaliullin,  P. P. Korambath,  
 W. Kurlancheek,  A. Laurent,  A. M. Lee,  M. S. Lee,  S. V. Levchenko,  
 Ching Yeh Lin,  D. Liotard,  E. Livshits,  R. C. Lochan,  I. Lotan,  
 L. A. Martinez-Martinez,  P. E. Maslen,  N. Nair,  D. P. O'Neill,  
 D. Neuhauser,  E. Neuscamman,  C. M. Oana,  R. Olivares-Amaya,  R. Olson,  
 T. M. Perrine,  B. Peters,  P. A. Pieniazek,  A. Prociuk,  Y. M. Rhee,  
 J. Ritchie,  M. A. Rohrdanz,  E. Rosta,  N. J. Russ,  H. F. Schaefer III,  
 M. W. Schmidt,  N. E. Schultz,  S. Sharma,  N. Shenvi,  C. D. Sherrill,  
 A. C. Simmonett,  A. Sodt,  T. Stein,  D. Stuck,  K. S. Thanthiriwatte,  
 V. Vanovschi,  L. Vogt,  Tao Wang,  A. Warshel,  M. A. Watson,  
 C. F. Williams,  Q. Wu,  X. Xu,  Jun Yang,  W. Zhang,  Yan Zhao

   Please cite Q-Chem as follows:
  "Software for the frontiers of quantum chemistry:
   An overview of developments in the Q-Chem 5 package"
   J. Chem. Phys. 155, 084801 (2021)
   https://doi.org/10.1063/5.0055522 (open access)

 Q-Chem 5.4.2 for Intel X86 EM64T Linux

 Parts of Q-Chem use Armadillo 9.900.5 (Nocturnal Misbehaviour).
 http://arma.sourceforge.net/

 Q-Chem begins on Fri Feb 28 08:14:58 2025  

 Host: 
0

     Scratch files written to /scratch/qchem115736//
 Dec1321 |scratch|qcdevops|jenkins|workspace|build_RNUM 5684   
 Processing $rem in /home/kchung25/qchem/5.4.0/config/preferences:
 Processing $rem in /home/kchung25/.qchemrc:

 Q-Chem warning in module libgen/rem_setup.C, line 3079:

 Neither GIA nor STOLL is specified by user. Use STOLL as the default


 Checking the input file for inconsistencies... 	...done.

--------------------------------------------------------------
User input:
--------------------------------------------------------------
$molecule
0 1
--
0 1
C   -2.998340   0.550351   0.040756
C   -1.535899   0.271909  -0.173320
O   -1.275460  -1.053816   0.198153
H   -0.364241  -1.261540  -0.052863
H   -3.247098   1.580018  -0.222343
H   -3.264821   0.385862   1.086613
H   -3.605355  -0.121481  -0.568933
H   -0.933239   0.978643   0.423478
H   -1.268196   0.449168  -1.227401
--
0 1
C    2.149700   1.251481  -0.129031
C    2.027911  -0.099264   0.526088
O    1.515186  -1.081555  -0.355977
H    2.038153  -1.088784  -1.161518
H    2.510688   1.998978   0.579727
H    1.181988   1.580481  -0.514378
H    2.856407   1.220053  -0.963699
H    1.323546  -0.063289   1.361837
H    2.994125  -0.422006   0.935112
$end

$rem
JOBTYPE          eda
EDA2             1
METHOD           wB97M-V
BASIS            def2-TZVPPD
SYMMETRY         false
MEM_TOTAL        50000
MEM_STATIC       10000
THRESH           14
SCF_CONVERGENCE  8
XC_GRID          000099000590
NL_GRID          1
EDA_CLS_DISP     true
FD_MAT_VEC_PROD  FALSE
$end
--------------------------------------------------------------
 ----------------------------------------------------------------
             Standard Nuclear Orientation (Angstroms)
    I     Atom           X                Y                Z
 ----------------------------------------------------------------
    1      C      -2.9983399481     0.5503510356     0.0407559125
    2      C      -1.5358989493     0.2719089795    -0.1733200226
    3      O      -1.2754599254    -1.0538158895     0.1981534280
    4      H      -0.3642409282    -1.2615399649    -0.0528625198
    5      H      -3.2470979661     1.5800179420    -0.2223434365
    6      H      -3.2648209240     0.3858623922     1.0866129748
    7      H      -3.6053549529    -0.1214811815    -0.5689328435
    8      H      -0.9332389451     0.9786431921     0.4234777215
    9      H      -1.2681959737     0.4491676201    -1.2274010893
   10      C       2.1497000399     1.2514810392    -0.1290314376
   11      C       2.0279110700    -0.0992637369     0.5260880297
   12      O       1.5151860632    -1.0815550465    -0.3559766215
   13      H       2.0381530462    -1.0887843174    -1.1615176300
   14      H       2.5106880459     1.9989782874     0.5797262976
   15      H       1.1819880278     1.5804808950    -0.5143785303
   16      H       2.8564070226     1.2200527605    -0.9636994417
   17      H       1.3235460873    -0.0632884578     1.3618370322
   18      H       2.9941250826    -0.4220055845     0.9351121203
 ----------------------------------------------------------------
 Molecular Point Group                 C1    NOp =  1
 Largest Abelian Subgroup              C1    NOp =  1
 Nuclear Repulsion Energy =         256.04960985 hartrees
 There are       26 alpha and       26 beta electrons
 Requested basis set is def2-TZVPPD
 There are 164 shells and 432 basis functions

 Q-Chem warning in module libmdc/get_mega.C, line 171:

 Allowed MEM_STATIC has been capped at MEM_STATIC=8191.
 Reduce the value of MEM_STATIC to silence this warning.


 Total QAlloc Memory Limit  50000 MB
 Mega-Array Size      8007 MB
 MEM_STATIC part      8191 MB
 A cutoff of  1.0D-14 yielded  12387 shell pairs
 There are     85429 function pairs (    105113 Cartesian)
 Smallest overlap matrix eigenvalue = 7.27E-06

 Scale SEOQF with 1.000000e-01/1.000000e-01/1.000000e-01

 Standard Electronic Orientation quadrupole field applied
 Nucleus-field energy     =     0.0000000097 hartrees

 -----------------------------------------------------------------------
  General SCF calculation program by
  Eric Jon Sundstrom, Paul Horn, Yuezhi Mao, Dmitri Zuev, Alec White,
  David Stuck, Shaama M.S., Shane Yost, Joonho Lee, David Small,
  Daniel Levine, Susi Lehtola, Hugh Burton, Evgeny Epifanovsky,
  Bang C. Huynh
 -----------------------------------------------------------------------
================================================================
                 ALMO-EDA with the EDA2 driver                  
================================================================
 The second-generation ALMO-EDA (for DFT):                      
 P. R. Horn, Y. Mao and M. Head-Gordon, PCCP, 18, 23067 (2016)  
 Y. Mao et al. Annu. Rev. Phys. Chem. 72, 641 (2021)            
 Decomposition of the frozen energy:                            
 P. R. Horn, Y. Mao and M. Head-Gordon, JCP, 144, 114107 (2016) 
 FERF model for polarization:                                   
 P. R. Horn and M. Head-Gordon, JCP, 143, 114111 (2015)         
================================================================
 Using eda2 option set 1
 Option set summary: Frozen orbital wavefunction, initial wavefunction decomposition, and nDQ polarization.
--------------------------------
Printing EDA Options
--------------------------------
eda_child_super_basis      0
fragmo_guess_mode          0
child_mp                   1
child_mp_orders            232
cls_elec                   1
cls_disp                   1
scfmi_mode                 1
scfmi_occs                 0
scfmi_virts                0
frz_relax                  0
frz_relax_method           0
dc_pen_start               0
dc_pen_conv                0
dc_pen_increment           0
dc_pen_steps               0
dc_pen_thresh_factor       0
dc_pen_pre_newton_thresh   0
frz_ortho_decomp           1
frz_ortho_decomp_conv      6
plot_mo_ortho_frz          0
frgm_method                2
scfmi_freeze_ss            0
separate_rehyb             0
plot_diff_den              0
eda_nocv                   0
eda_vct_relax              1
disp_free_x                0
disp_free_c                0
eda_bsse                   0
eda_pct_a                  0
eda_covp                   0
--------------------------------
Attempting to make child job directory: /scratch/qchem115736//Frg1/
Attempting to make child job directory: /scratch/qchem115736//Frg2/
Creating input file /scratch/qchem115736/Frg1.input
using default PutDataFrgm: nothing
calling putenv with: QCSCRATCH=/scratch/qchem115736/ 
Spawning Job For Fragment 0
Done Job For Fragment 0
calling putenv with: QCSCRATCH=/scratch 
calling putenv with: QCTHREADS=6 
Creating input file /scratch/qchem115736/Frg2.input
using default PutDataFrgm: nothing
calling putenv with: QCSCRATCH=/scratch/qchem115736/ 
Spawning Job For Fragment 1
Done Job For Fragment 1
calling putenv with: QCSCRATCH=/scratch 
calling putenv with: QCTHREADS=6 
Doing General SCFMI
 Exchange:     0.1500 Hartree-Fock + 1.0000 wB97M-V + LR-HF
 Correlation:  1.0000 wB97M-V
 Using Euler-Maclaurin-Lebedev (99,590) quadrature formula
 Nonlocal Correlation:  VV10 with C = 0.0100 and b = 6.00 and scale = 1.00000
 Grid used for NLC:  SG-1 standard quadrature
performing fock build before subrot guess so that all methods have access
Printing subrot_rss_gen Method Specification:
Occupied Subspace Method is 0
Virtual Subspace Method is 0
Energy of the unrelaxed supersystem initial determinant -310.062202261586
write pseudocanon occs and virts to disk
write pseudocanon orbital energies to disk
Tolerance of ortho_decomp_scf: 1.00e-06
GDM subspace size: 20
Beginning the Orthogonal Decomposition of the Initial Supersystem Wavefunction
    1    -310.0127336479      9.49e-02     ortho_decomp Preconditoned Steepest Descent
    2    -310.0188022204      1.88e-03     ortho_decomp BFGS Step
    3    -310.0188174617      1.50e-04     ortho_decomp BFGS Step
    4    -310.0188174879      5.07e-06     ortho_decomp BFGS Step
    5    -310.0188174879      1.50e-07     ortho_decomp 00000 Convergence criterion met
 Hartree-Fock
 Hartree-Fock
 Hartree-Fock
 Exchange:     0.1500 Hartree-Fock + 1.0000 wB97M-V + LR-HF
 Correlation:  1.0000 wB97M-V
 Using Euler-Maclaurin-Lebedev (99,590) quadrature formula
 Nonlocal Correlation:  VV10 with C = 0.0100 and b = 6.00 and scale = 1.00000
 Grid used for NLC:  SG-1 standard quadrature
 Long-range K will be added via erf
 Coulomb attenuation parameter = 0.3 bohr**(-1)
 Nonlocal correlation = 2.039028294205e-01
Doing General SCFMI
 Exchange:     0.1500 Hartree-Fock + 1.0000 wB97M-V + LR-HF
 Correlation:  1.0000 wB97M-V
 Using Euler-Maclaurin-Lebedev (99,590) quadrature formula
 Nonlocal Correlation:  VV10 with C = 0.0100 and b = 6.00 and scale = 1.00000
 Grid used for NLC:  SG-1 standard quadrature
performing fock build at end of subrot_r(subrot) constructor so that all methods have access
<S^2> of initial wavefunction before polarization iterations 0.0000000000
Beginning iterations for the determination of the polarized wavefunction
Energy prior to optimization (guess energy) = -310.062202261586
Begin Timing: Total SCF Calculation
begin iterations for algorithm: DIIS         
the SCF tolerance is set to 1.00e-08
    1    -310.0622022616      2.91e-04     00000 
    2    -310.0646330334      9.62e-05     00000 
    3    -310.0648473090      6.17e-05     00000 
    4    -310.0649040378      2.18e-05     00000 
    5    -310.0649156028      7.42e-06     00000 
    6    -310.0649186199      2.94e-06     00000 
    7    -310.0649190369      1.47e-06     00000 
    8    -310.0649191215      5.59e-07     00000 
    9    -310.0649191300      2.33e-07     00000 
   10    -310.0649191311      6.55e-08     00000 
   11    -310.0649191312      2.18e-08     00000 
   12    -310.0649191313      9.11e-09     00000 Convergence criterion met
write pseudocanon occs and virts to disk
write pseudocanon orbital energies to disk
Timing for Total SCF: 289.00s (wall), 1733.12s (cpu)
<S^2> of polarized wavefunction after polarization iterations 0.0000000000
relaxing scfmi constraint to allow all rotations in the entire AO span
Doing General SCFMI
 Exchange:     0.1500 Hartree-Fock + 1.0000 wB97M-V + LR-HF
 Correlation:  1.0000 wB97M-V
 Using Euler-Maclaurin-Lebedev (99,590) quadrature formula
 Nonlocal Correlation:  VV10 with C = 0.0100 and b = 6.00 and scale = 1.00000
 Grid used for NLC:  SG-1 standard quadrature
performing fock build at end of subrot_r(subrot) constructor so that all methods have access
<S^2> of polarized wavefunction before ct-allowed iterations 0.0000000000
Beginning iterations for the determination of the CT-Allowed wavefunction
Energy prior to optimization (guess energy) = -310.064919131266
Begin Timing: Total SCF Calculation
begin iterations for algorithm: DIIS         
the SCF tolerance is set to 1.00e-08
    1    -310.0649191313      1.72e-04     00000 
    2    -310.0680433967      2.47e-05     00000 
    3    -310.0681464242      9.74e-06     00000 
    4    -310.0681521052      5.00e-06     00000 
    5    -310.0681539737      4.14e-07     00000 
    6    -310.0681540062      2.09e-07     00000 
    7    -310.0681540114      5.34e-08     00000 
    8    -310.0681540118      1.99e-08     00000 
    9    -310.0681540118      7.56e-09     00000 Convergence criterion met
write pseudocanon occs and virts to disk
write pseudocanon orbital energies to disk
Timing for Total SCF: 210.00s (wall), 1256.45s (cpu)
<S^2> of ct_allowed wavefunction after ct-allowed iterations 0.0000000000

================================
        Results of EDA2         
================================
Basic EDA Quantities
--------------------
Fragment Energies (Ha):
1 -155.0291470718
2 -155.0294281172
--------------------
  E_prp (kJ/mol) = 0.0000
  E_frz (kJ/mol) = -9.5230
  E_pol (kJ/mol) = -7.1332
  E_vct (kJ/mol) = -8.4933
  E_int (kJ/mol) = -25.1495
--------------------


Decomposition of frozen interaction energy
--------------------
  --------------------
  Orthogonal Frozen Decomposition:
  --------------------
     E_elec   (ELEC)   (kJ/mol) = -75.5893
     E_pauli  (PAULI)  (kJ/mol) = 83.9862
     E_disp   (DISP)   (kJ/mol) = -17.9199
  --------------------
  Classical Frozen Decomposition:
  --------------------
     E_cls_elec  (CLS ELEC)  (kJ/mol) = -38.5073
     E_mod_pauli (MOD PAULI) (kJ/mol) = 44.4699 (FRZ - CLS ELEC - CLS DISP)
     E_cls_disp  (CLS DISP)  (kJ/mol) = -15.4856
  --------------------
--------------------

Simplified EDA Summary (kJ/mol)
--------------------
 PREPARATION      0.0000
 FROZEN           -9.5230 (ELEC + PAULI + DISP)
[ELEC + PAULI = 5.9627, DISP = -15.4856]
 POLARIZATION    -7.1332
 CHARGE TRANSFER -8.4933
 TOTAL           -25.1495     (PRP + FRZ + POL + CT)
--------------------
 
 --------------------------------------------------------------
 
                    Orbital Energies (a.u.)
 --------------------------------------------------------------
 
 Alpha MOs
 -- Occupied --
-19.3542 -19.3050 -10.4004 -10.3736 -10.3448 -10.3172  -1.1748  -1.1305
 -0.8864  -0.8593  -0.7588  -0.7124  -0.6406  -0.6092  -0.5780  -0.5647
 -0.5610  -0.5030  -0.4966  -0.4878  -0.4719  -0.4548  -0.4467  -0.4163
 -0.4009  -0.3582
 -- Virtual --
  0.0278   0.0508   0.0554   0.0578   0.0778   0.0898   0.0958   0.0988
  0.1091   0.1236   0.1357   0.1371   0.1414   0.1473   0.1575   0.1667
  0.1748   0.1805   0.1890   0.1926   0.1983   0.2093   0.2314   0.2333
  0.2412   0.2460   0.2505   0.2593   0.2640   0.2701   0.2730   0.2790
  0.2852   0.2924   0.2973   0.3034   0.3096   0.3165   0.3197   0.3233
  0.3295   0.3330   0.3379   0.3418   0.3439   0.3505   0.3582   0.3618
  0.3639   0.3741   0.3762   0.3786   0.3847   0.3904   0.3945   0.3960
  0.4086   0.4185   0.4238   0.4318   0.4363   0.4393   0.4458   0.4522
  0.4597   0.4623   0.4679   0.4718   0.4826   0.4861   0.4970   0.5052
  0.5079   0.5112   0.5184   0.5282   0.5359   0.5440   0.5538   0.5679
  0.5717   0.5815   0.5952   0.5971   0.6130   0.6201   0.6384   0.6400
  0.6493   0.6606   0.6669   0.6772   0.6877   0.7067   0.7127   0.7155
  0.7236   0.7272   0.7417   0.7484   0.7548   0.7580   0.7618   0.7670
  0.7689   0.7819   0.7860   0.7896   0.8004   0.8113   0.8209   0.8405
  0.8456   0.8481   0.8700   0.8795   0.8953   0.8991   0.9118   0.9224
  0.9376   0.9469   0.9708   0.9936   1.0016   1.0223   1.0369   1.0457
  1.0598   1.0698   1.0816   1.1007   1.1123   1.1335   1.1567   1.1658
  1.1739   1.1896   1.2078   1.2158   1.2289   1.2483   1.2546   1.2603
  1.2713   1.2853   1.2928   1.2957   1.3116   1.3242   1.3347   1.3465
  1.3564   1.3596   1.3791   1.3978   1.4118   1.4170   1.4323   1.4463
  1.4607   1.4693   1.4837   1.5050   1.5190   1.5327   1.5574   1.5887
  1.6132   1.6198   1.6360   1.6431   1.6488   1.6565   1.6656   1.6832
  1.6895   1.6982   1.7026   1.7345   1.7510   1.7610   1.7820   1.7984
  1.8232   1.8475   1.9362   1.9467   1.9559   2.0039   2.0080   2.0504
  2.0884   2.1148   2.1265   2.1617   2.1978   2.2188   2.2375   2.2651
  2.3162   2.3388   2.3521   2.3646   2.3861   2.4397   2.4606   2.4758
  2.5072   2.5759   2.6846   2.7284   2.7412   2.7614   2.8055   2.8164
  2.8340   2.8711   2.8796   2.8816   2.8853   2.9042   2.9132   2.9260
  2.9371   2.9604   2.9843   2.9978   3.0088   3.0129   3.0319   3.0437
  3.0575   3.0657   3.0965   3.1078   3.1270   3.1416   3.1666   3.1710
  3.1764   3.2183   3.2305   3.2427   3.2470   3.2561   3.2650   3.2728
  3.2832   3.2972   3.3125   3.3224   3.3406   3.3484   3.3673   3.3977
  3.4282   3.4386   3.4613   3.4713   3.4856   3.5225   3.5510   3.5647
  3.5820   3.5853   3.6029   3.6124   3.6210   3.6425   3.6735   3.6976
  3.7137   3.7228   3.7280   3.7329   3.7465   3.7817   3.8030   3.8168
  3.8273   3.8574   3.9016   3.9100   3.9327   3.9675   3.9941   3.9979
  4.0230   4.0277   4.0442   4.0464   4.0604   4.0912   4.1067   4.1158
  4.1220   4.1311   4.1441   4.1687   4.1705   4.1848   4.2052   4.2110
  4.2228   4.2317   4.2332   4.2432   4.2861   4.2981   4.3238   4.3253
  4.3420   4.3662   4.3782   4.4020   4.4090   4.4258   4.4534   4.4833
  4.4937   4.5061   4.5241   4.5351   4.5621   4.5812   4.6146   4.6335
  4.6771   4.6930   4.7087   4.7137   4.7221   4.7561   4.8084   4.8168
  4.8556   4.8918   4.9359   4.9396   4.9483   4.9576   4.9737   4.9947
  5.0255   5.0440   5.0517   5.0846   5.1071   5.1481   5.2213   5.2575
  5.2907   5.3234   5.3357   5.3674   5.4072   5.4120   5.4186   5.4303
  5.4350   5.4555   5.4592   5.4851   5.5053   5.5257   5.5633   5.5800
  5.5983   5.6663   5.6737   5.7058   5.7322   5.7554   5.7598   5.7979
  5.8092   5.8573   5.8737   6.0049   6.0904   6.1576   6.2851   6.3035
  6.6416   6.6947   6.8286   6.8673   6.9034   6.9312   6.9942   7.0234
  7.0857   7.1071   7.3724   7.4087   7.5373   7.6439   7.7961   7.8563
 23.7374  23.8542  24.0424  24.0724  44.7495  44.8809
 --------------------------------------------------------------
 
          Ground-State Mulliken Net Atomic Charges

     Atom                 Charge (a.u.)
  ----------------------------------------
      1 C                    -1.166904
      2 C                    -0.005688
      3 O                    -0.470641
      4 H                     0.267860
      5 H                     0.313529
      6 H                     0.276942
      7 H                     0.277923
      8 H                     0.183622
      9 H                     0.310782
     10 C                    -0.947149
     11 C                    -0.194750
     12 O                    -0.369218
     13 H                     0.116158
     14 H                     0.263975
     15 H                     0.244299
     16 H                     0.329583
     17 H                     0.244616
     18 H                     0.325062
  ----------------------------------------
  Sum of atomic charges =     0.000000

 -----------------------------------------------------------------
                    Cartesian Multipole Moments
 -----------------------------------------------------------------
    Charge (ESU x 10^10)
                 0.0000
    Dipole Moment (Debye)
         X       3.0066      Y       1.9586      Z      -1.0170
       Tot       3.7296
    Quadrupole Moments (Debye-Ang)
        XX     -37.1282     XY      -2.6534     YY     -43.4877
        XZ      -0.7497     YZ       1.9981     ZZ     -38.6953
    Octopole Moments (Debye-Ang^2)
       XXX      20.4810    XXY      -0.0947    XYY       4.8912
       YYY      -4.3434    XXZ      -5.8822    XYZ       2.3307
       YYZ      -2.1758    XZZ       6.9620    YZZ      -4.7705
       ZZZ      -3.5447
    Hexadecapole Moments (Debye-Ang^3)
      XXXX   -1085.9315   XXXY     -11.5097   XXYY    -232.6061
      XYYY      -5.6625   YYYY    -254.5797   XXXZ     -12.4002
      XXYZ       9.6159   XYYZ      -0.3640   YYYZ       5.7025
      XXZZ    -188.2611   XYZZ      -5.7631   YYZZ     -55.9564
      XZZZ     -10.9713   YZZZ       6.7860   ZZZZ     -93.4044
 -----------------------------------------------------------------
 Total job time:  1525.32s(wall), 5642.63s(cpu) 
 Fri Feb 28 08:40:24 2025

        *************************************************************
        *                                                           *
        *  Thank you very much for using Q-Chem.  Have a nice day.  *
        *                                                           *
        *************************************************************


