
Running Job 1 of 1 004_ethanol_dimer_24_almo.inp
qchem 004_ethanol_dimer_24_almo.inp_119340.0 /scratch/qchem119340/ 6
/home/kchung25/qchem/5.4.0/exe/qcprog.exe_s 004_ethanol_dimer_24_almo.inp_119340.0 /scratch/qchem119340/
                  Welcome to Q-Chem
     A Quantum Leap Into The Future Of Chemistry


 Q-Chem 5.4, Q-Chem, Inc., Pleasanton, CA (2021)

 E. Epifanovsky,  A. T. B. Gilbert,  Xintian Feng,  Joonho Lee,  Yuezhi Mao,  
 N. Mardirossian,  P. Pokhilko,  A. White,  M. Wormit,  M. P. Coons,  
 A. L. Dempwolff,  Zhengting Gan,  D. Hait,  P. R. Horn,  L. D. Jacobson,  
 I. Kaliman,  J. Kussmann,  A. W. Lange,  Ka Un Lao,  D. S. Levine,  Jie Liu,  
 S. C. McKenzie,  A. F. Morrison,  K. Nanda,  F. Plasser,  D. R. Rehn,  
 M. L. Vidal,  Zhi-Qiang You,  Ying Zhu,  B. Alam,  B. Albrecht,  
 A. Aldossary,  E. Alguire,  J. H. Andersen,  D. Barton,  K. Begam,  A. Behn,  
 Y. A. Bernard,  E. J. Berquist,  H. Burton,  A. Carreras,  K. Carter-Fenk,  
 Romit Chakraborty,  A. D. Chien,  K. D. Closser,  V. Cofer-Shabica,  
 S. Dasgupta,  Jia Deng,  M. de Wergifosse,  M. Diedenhofen,  Hainam Do,  
 S. Ehlert,  Po-Tung Fang,  S. Fatehi,  Qingguo Feng,  T. Friedhoff,  
 J. Gayvert,  Qinghui Ge,  G. Gidofalvi,  M. Goldey,  J. Gomes,  
 C. Gonzalez-Espinoza,  S. Gulania,  A. Gunina,  M. W. D. Hanson-Heine,  
 P. H. P. Harbach,  A. W. Hauser,  M. F. Herbst,  M. Hernandez Vera,  
 M. Hodecker,  Z. C. Holden,  S. Houck,  Xunkun Huang,  Kerwin Hui,  
 B. C. Huynh,  M. Ivanov,  Hyunjun Ji,  Hanjie Jiang,  B. Kaduk,  S. Kaehler,  
 K. Khistyaev,  Jaehoon Kim,  P. Klunzinger,  Z. Koczor-Benda,  
 Joong Hoon Koh,  D. Kosenkov,  L. Koulias,  T. Kowalczyk,  C. M. Krauter,  
 K. Kue,  A. Kunitsa,  T. Kus,  A. Landau,  K. V. Lawler,  D. Lefrancois,  
 S. Lehtola,  Rain Li,  Yi-Pei Li,  Jiashu Liang,  M. Liebenthal,  
 Hung-Hsuan Lin,  You-Sheng Lin,  Fenglai Liu,  Kuan-Yu Liu,  
 M. Loipersberger,  A. Luenser,  A. Manjanath,  P. Manohar,  E. Mansoor,  
 S. F. Manzer,  Shan-Ping Mao,  A. V. Marenich,  T. Markovich,  S. Mason,  
 S. A. Maurer,  P. F. McLaughlin,  M. F. S. J. Menger,  J.-M. Mewes,  
 S. A. Mewes,  P. Morgante,  J. W. Mullinax,  K. J. Oosterbaan,  G. Paran,  
 Alexander C. Paul,  Suranjan K. Paul,  F. Pavosevic,  Zheng Pei,  S. Prager,  
 E. I. Proynov,  E. Ramos,  B. Rana,  A. E. Rask,  A. Rettig,  R. M. Richard,  
 F. Rob,  E. Rossomme,  T. Scheele,  M. Scheurer,  M. Schneider,  
 N. Sergueev,  S. M. Sharada,  W. Skomorowski,  D. W. Small,  C. J. Stein,  
 Yu-Chuan Su,  E. J. Sundstrom,  Zhen Tao,  J. Thirman,  T. Tsuchimochi,  
 N. M. Tubman,  S. P. Veccham,  O. Vydrov,  J. Wenzel,  J. Witte,  A. Yamada,  
 Kun Yao,  S. Yeganeh,  S. R. Yost,  A. Zech,  Igor Ying Zhang,  Xing Zhang,  
 Yu Zhang,  D. Zuev,  A. Aspuru-Guzik,  A. T. Bell,  N. A. Besley,  
 K. B. Bravaya,  B. R. Brooks,  D. Casanova,  Jeng-Da Chai,  S. Coriani,  
 C. J. Cramer,  A. E. DePrince, III,  R. A. DiStasio Jr.,  A. Dreuw,  
 B. D. Dunietz,  T. R. Furlani,  W. A. Goddard III,  S. Grimme,  
 S. Hammes-Schiffer,  T. Head-Gordon,  W. J. Hehre,  Chao-Ping Hsu,  
 T.-C. Jagau,  Yousung Jung,  A. Klamt,  Jing Kong,  D. S. Lambrecht,  
 WanZhen Liang,  N. J. Mayhall,  C. W. McCurdy,  J. B. Neaton,  T. Neudecker,  
 C. Ochsenfeld,  J. A. Parkhill,  R. Peverati,  V. A. Rassolov,  Yihan Shao,  
 L. V. Slipchenko,  R. P. Steele,  J. E. Subotnik,  A. J. W. Thom,  
 A. Tkatchenko,  D. G. Truhlar,  T. Van Voorhis,  T. A. Wesolowski,  
 K. B. Whaley,  H. L. Woodcock III,  P. M. Zimmerman,  S. Faraji,  
 P. M. W. Gill,  M. Head-Gordon,  J. M. Herbert,  A. I. Krylov

 Additional authors since Version 5.4.0: 
 Chandrima Chakravarty,  L. Cunha,  R. Kang,  Yongbin Kim,  S. Kotaru,  
 Shaozhi Li,  Xiangyuan Li,  F. Matz,  A. Molle,  V. Parravicini,  
 Haisheng Ren,  Hengyuan Shen,  Yingli Su,  Hung-Yi Tsai,  C. Utku,  
 Fang Wang,  Jeff Yang,  F. Zeller

 Contributors to earlier versions of Q-Chem not listed above: 
 R. D. Adamson,  B. Austin,  R. Baer,  J. Baker,  G. J. O. Beran,  
 K. Brandhorst,  S. T. Brown,  E. F. C. Byrd,  Arup K. Chakraborty,  
 G. K. L. Chan,  Chun-Min Chang,  Yunqing Chen,  C.-L. Cheng,  
 Siu Hung Chien,  D. M. Chipman,  D. L. Crittenden,  H. Dachsel,  
 R. J. Doerksen,  A. D. Dutoi,  R. G. Edgar,  J. Fosso-Tande,  
 L. Fusti-Molnar,  D. Ghosh,  A. Ghysels,  A. Golubeva-Zadorozhnaya,  
 J. Gonthier,  M. S. Gordon,  S. R. Gwaltney,  G. Hawkins,  J. E. Herr,  
 A. Heyden,  S. Hirata,  E. G. Hohenstein,  G. Kedziora,  F. J. Keil,  
 C. Kelley,  Jihan Kim,  R. A. King,  R. Z. Khaliullin,  P. P. Korambath,  
 W. Kurlancheek,  A. Laurent,  A. M. Lee,  M. S. Lee,  S. V. Levchenko,  
 Ching Yeh Lin,  D. Liotard,  E. Livshits,  R. C. Lochan,  I. Lotan,  
 L. A. Martinez-Martinez,  P. E. Maslen,  N. Nair,  D. P. O'Neill,  
 D. Neuhauser,  E. Neuscamman,  C. M. Oana,  R. Olivares-Amaya,  R. Olson,  
 T. M. Perrine,  B. Peters,  P. A. Pieniazek,  A. Prociuk,  Y. M. Rhee,  
 J. Ritchie,  M. A. Rohrdanz,  E. Rosta,  N. J. Russ,  H. F. Schaefer III,  
 M. W. Schmidt,  N. E. Schultz,  S. Sharma,  N. Shenvi,  C. D. Sherrill,  
 A. C. Simmonett,  A. Sodt,  T. Stein,  D. Stuck,  K. S. Thanthiriwatte,  
 V. Vanovschi,  L. Vogt,  Tao Wang,  A. Warshel,  M. A. Watson,  
 C. F. Williams,  Q. Wu,  X. Xu,  Jun Yang,  W. Zhang,  Yan Zhao

   Please cite Q-Chem as follows:
  "Software for the frontiers of quantum chemistry:
   An overview of developments in the Q-Chem 5 package"
   J. Chem. Phys. 155, 084801 (2021)
   https://doi.org/10.1063/5.0055522 (open access)

 Q-Chem 5.4.2 for Intel X86 EM64T Linux

 Parts of Q-Chem use Armadillo 9.900.5 (Nocturnal Misbehaviour).
 http://arma.sourceforge.net/

 Q-Chem begins on Fri Feb 28 09:33:21 2025  

 Host: 
0

     Scratch files written to /scratch/qchem119340//
 Dec1321 |scratch|qcdevops|jenkins|workspace|build_RNUM 5684   
 Processing $rem in /home/kchung25/qchem/5.4.0/config/preferences:
 Processing $rem in /home/kchung25/.qchemrc:

 Q-Chem warning in module libgen/rem_setup.C, line 3079:

 Neither GIA nor STOLL is specified by user. Use STOLL as the default


 Checking the input file for inconsistencies... 	...done.

--------------------------------------------------------------
User input:
--------------------------------------------------------------
$molecule
0 1
--
0 1
C   -1.767649   1.141140   0.537872
C   -1.786873   0.182956  -0.618586
O   -1.516247  -1.119461  -0.119937
H   -1.621686  -1.760111  -0.826386
H   -1.965418   2.157701   0.194608
H   -0.792472   1.123646   1.029813
H   -2.528051   0.869967   1.272228
H   -1.031102   0.470490  -1.364029
H   -2.763484   0.199082  -1.118537
--
0 1
C    2.285895   0.915613  -0.353139
C    1.768879  -0.497323  -0.253730
O    1.082855  -0.681934   0.959196
H    0.196679  -1.015150   0.760762
H    2.878054   1.060339  -1.259586
H    2.915318   1.146003   0.508561
H    1.457880   1.629245  -0.361193
H    2.606680  -1.206254  -0.316332
H    1.113226  -0.718106  -1.108490
$end

$rem
JOBTYPE          eda
EDA2             1
METHOD           wB97M-V
BASIS            def2-TZVPPD
SYMMETRY         false
MEM_TOTAL        50000
MEM_STATIC       10000
THRESH           14
SCF_CONVERGENCE  8
XC_GRID          000099000590
NL_GRID          1
EDA_CLS_DISP     true
FD_MAT_VEC_PROD  FALSE
$end
--------------------------------------------------------------
 ----------------------------------------------------------------
             Standard Nuclear Orientation (Angstroms)
    I     Atom           X                Y                Z
 ----------------------------------------------------------------
    1      C      -1.7676490157     1.1411399563     0.5378718496
    2      C      -1.7868729741     0.1829557396    -0.6185859716
    3      O      -1.5162470011    -1.1194611684    -0.1199367166
    4      H      -1.6216859760    -1.7601113002    -0.8263856008
    5      H      -1.9654179965     2.1577008930     0.1946076511
    6      H      -0.7924720356     1.1236460433     1.0298128921
    7      H      -2.5280510467     0.8699670979     1.2722278698
    8      H      -1.0311019426     0.4704895959    -1.3640289951
    9      H      -2.7634839539     0.1990816510    -1.1185370140
   10      C       2.2858950190     0.9156127679    -0.3531389449
   11      C       1.7688790076    -0.4973232107    -0.2537297009
   12      O       1.0828549578    -0.6819339798     0.9591963060
   13      H       0.1966789640    -1.0151500123     0.7607623328
   14      H       2.8780540563     1.0603385949    -1.2595859482
   15      H       2.9153179855     1.1460029261     0.5085610372
   16      H       1.4578800231     1.6292447708    -0.3611931120
   17      H       2.6066800064    -1.2062542268    -0.3163315343
   18      H       1.1132260409    -0.7181063675    -1.1084896860
 ----------------------------------------------------------------
 Molecular Point Group                 C1    NOp =  1
 Largest Abelian Subgroup              C1    NOp =  1
 Nuclear Repulsion Energy =         262.32364231 hartrees
 There are       26 alpha and       26 beta electrons
 Requested basis set is def2-TZVPPD
 There are 164 shells and 432 basis functions

 Q-Chem warning in module libmdc/get_mega.C, line 171:

 Allowed MEM_STATIC has been capped at MEM_STATIC=8191.
 Reduce the value of MEM_STATIC to silence this warning.


 Total QAlloc Memory Limit  50000 MB
 Mega-Array Size      8007 MB
 MEM_STATIC part      8191 MB
 A cutoff of  1.0D-14 yielded  12653 shell pairs
 There are     87619 function pairs (    108002 Cartesian)
 Smallest overlap matrix eigenvalue = 8.18E-06

 Scale SEOQF with 1.000000e-01/1.000000e-01/1.000000e-01

 Standard Electronic Orientation quadrupole field applied
 Nucleus-field energy     =     0.0000000067 hartrees

 -----------------------------------------------------------------------
  General SCF calculation program by
  Eric Jon Sundstrom, Paul Horn, Yuezhi Mao, Dmitri Zuev, Alec White,
  David Stuck, Shaama M.S., Shane Yost, Joonho Lee, David Small,
  Daniel Levine, Susi Lehtola, Hugh Burton, Evgeny Epifanovsky,
  Bang C. Huynh
 -----------------------------------------------------------------------
================================================================
                 ALMO-EDA with the EDA2 driver                  
================================================================
 The second-generation ALMO-EDA (for DFT):                      
 P. R. Horn, Y. Mao and M. Head-Gordon, PCCP, 18, 23067 (2016)  
 Y. Mao et al. Annu. Rev. Phys. Chem. 72, 641 (2021)            
 Decomposition of the frozen energy:                            
 P. R. Horn, Y. Mao and M. Head-Gordon, JCP, 144, 114107 (2016) 
 FERF model for polarization:                                   
 P. R. Horn and M. Head-Gordon, JCP, 143, 114111 (2015)         
================================================================
 Using eda2 option set 1
 Option set summary: Frozen orbital wavefunction, initial wavefunction decomposition, and nDQ polarization.
--------------------------------
Printing EDA Options
--------------------------------
eda_child_super_basis      0
fragmo_guess_mode          0
child_mp                   1
child_mp_orders            232
cls_elec                   1
cls_disp                   1
scfmi_mode                 1
scfmi_occs                 0
scfmi_virts                0
frz_relax                  0
frz_relax_method           0
dc_pen_start               0
dc_pen_conv                0
dc_pen_increment           0
dc_pen_steps               0
dc_pen_thresh_factor       0
dc_pen_pre_newton_thresh   0
frz_ortho_decomp           1
frz_ortho_decomp_conv      6
plot_mo_ortho_frz          0
frgm_method                2
scfmi_freeze_ss            0
separate_rehyb             0
plot_diff_den              0
eda_nocv                   0
eda_vct_relax              1
disp_free_x                0
disp_free_c                0
eda_bsse                   0
eda_pct_a                  0
eda_covp                   0
--------------------------------
Attempting to make child job directory: /scratch/qchem119340//Frg1/
Attempting to make child job directory: /scratch/qchem119340//Frg2/
Creating input file /scratch/qchem119340/Frg1.input
using default PutDataFrgm: nothing
calling putenv with: QCSCRATCH=/scratch/qchem119340/ 
Spawning Job For Fragment 0
Done Job For Fragment 0
calling putenv with: QCSCRATCH=/scratch 
calling putenv with: QCTHREADS=6 
Creating input file /scratch/qchem119340/Frg2.input
using default PutDataFrgm: nothing
calling putenv with: QCSCRATCH=/scratch/qchem119340/ 
Spawning Job For Fragment 1
Done Job For Fragment 1
calling putenv with: QCSCRATCH=/scratch 
calling putenv with: QCTHREADS=6 
Doing General SCFMI
 Exchange:     0.1500 Hartree-Fock + 1.0000 wB97M-V + LR-HF
 Correlation:  1.0000 wB97M-V
 Using Euler-Maclaurin-Lebedev (99,590) quadrature formula
 Nonlocal Correlation:  VV10 with C = 0.0100 and b = 6.00 and scale = 1.00000
 Grid used for NLC:  SG-1 standard quadrature
performing fock build before subrot guess so that all methods have access
Printing subrot_rss_gen Method Specification:
Occupied Subspace Method is 0
Virtual Subspace Method is 0
Energy of the unrelaxed supersystem initial determinant -310.060921803387
write pseudocanon occs and virts to disk
write pseudocanon orbital energies to disk
Tolerance of ortho_decomp_scf: 1.00e-06
GDM subspace size: 20
Beginning the Orthogonal Decomposition of the Initial Supersystem Wavefunction
    1    -310.0017754450      9.65e-02     ortho_decomp Preconditoned Steepest Descent
    2    -310.0095531403      2.42e-03     ortho_decomp BFGS Step
    3    -310.0095810879      1.80e-04     ortho_decomp BFGS Step
    4    -310.0095811191      6.12e-06     ortho_decomp BFGS Step
    5    -310.0095811191      1.97e-07     ortho_decomp 00000 Convergence criterion met
 Hartree-Fock
 Hartree-Fock
 Hartree-Fock
 Exchange:     0.1500 Hartree-Fock + 1.0000 wB97M-V + LR-HF
 Correlation:  1.0000 wB97M-V
 Using Euler-Maclaurin-Lebedev (99,590) quadrature formula
 Nonlocal Correlation:  VV10 with C = 0.0100 and b = 6.00 and scale = 1.00000
 Grid used for NLC:  SG-1 standard quadrature
 Long-range K will be added via erf
 Coulomb attenuation parameter = 0.3 bohr**(-1)
 Nonlocal correlation = 2.032298681148e-01
Doing General SCFMI
 Exchange:     0.1500 Hartree-Fock + 1.0000 wB97M-V + LR-HF
 Correlation:  1.0000 wB97M-V
 Using Euler-Maclaurin-Lebedev (99,590) quadrature formula
 Nonlocal Correlation:  VV10 with C = 0.0100 and b = 6.00 and scale = 1.00000
 Grid used for NLC:  SG-1 standard quadrature
performing fock build at end of subrot_r(subrot) constructor so that all methods have access
<S^2> of initial wavefunction before polarization iterations 0.0000000000
Beginning iterations for the determination of the polarized wavefunction
Energy prior to optimization (guess energy) = -310.060921803388
Begin Timing: Total SCF Calculation
begin iterations for algorithm: DIIS         
the SCF tolerance is set to 1.00e-08
    1    -310.0609218034      3.06e-04     00000 
    2    -310.0635742975      1.12e-04     00000 
    3    -310.0638031120      7.77e-05     00000 
    4    -310.0638836489      2.11e-05     00000 
    5    -310.0638959576      7.30e-06     00000 
    6    -310.0638992565      3.22e-06     00000 
    7    -310.0638997942      1.81e-06     00000 
    8    -310.0638999372      7.56e-07     00000 
    9    -310.0638999550      3.19e-07     00000 
   10    -310.0638999574      1.41e-07     00000 
   11    -310.0638999578      6.36e-08     00000 
   12    -310.0638999578      2.54e-08     00000 
   13    -310.0638999578      9.12e-09     00000 Convergence criterion met
write pseudocanon occs and virts to disk
write pseudocanon orbital energies to disk
Timing for Total SCF: 331.00s (wall), 1987.06s (cpu)
<S^2> of polarized wavefunction after polarization iterations 0.0000000000
relaxing scfmi constraint to allow all rotations in the entire AO span
Doing General SCFMI
 Exchange:     0.1500 Hartree-Fock + 1.0000 wB97M-V + LR-HF
 Correlation:  1.0000 wB97M-V
 Using Euler-Maclaurin-Lebedev (99,590) quadrature formula
 Nonlocal Correlation:  VV10 with C = 0.0100 and b = 6.00 and scale = 1.00000
 Grid used for NLC:  SG-1 standard quadrature
performing fock build at end of subrot_r(subrot) constructor so that all methods have access
<S^2> of polarized wavefunction before ct-allowed iterations 0.0000000000
Beginning iterations for the determination of the CT-Allowed wavefunction
Energy prior to optimization (guess energy) = -310.063899957825
Begin Timing: Total SCF Calculation
begin iterations for algorithm: DIIS         
the SCF tolerance is set to 1.00e-08
    1    -310.0638999578      1.82e-04     00000 
    2    -310.0674455354      2.64e-05     00000 
    3    -310.0675678909      1.08e-05     00000 
    4    -310.0675753711      5.51e-06     00000 
    5    -310.0675777827      5.30e-07     00000 
    6    -310.0675778377      2.76e-07     00000 
    7    -310.0675778474      6.73e-08     00000 
    8    -310.0675778480      2.93e-08     00000 
    9    -310.0675778481      8.97e-09     00000 Convergence criterion met
write pseudocanon occs and virts to disk
write pseudocanon orbital energies to disk
Timing for Total SCF: 221.00s (wall), 1323.04s (cpu)
<S^2> of ct_allowed wavefunction after ct-allowed iterations 0.0000000000

================================
        Results of EDA2         
================================
Basic EDA Quantities
--------------------
Fragment Energies (Ha):
1 -155.0296491576
2 -155.0276099991
--------------------
  E_prp (kJ/mol) = 0.0000
  E_frz (kJ/mol) = -9.6164
  E_pol (kJ/mol) = -7.8192
  E_vct (kJ/mol) = -9.6564
  E_int (kJ/mol) = -27.0920
--------------------


Decomposition of frozen interaction energy
--------------------
  --------------------
  Orthogonal Frozen Decomposition:
  --------------------
     E_elec   (ELEC)   (kJ/mol) = -87.9342
     E_pauli  (PAULI)  (kJ/mol) = 100.3252
     E_disp   (DISP)   (kJ/mol) = -22.0074
  --------------------
  Classical Frozen Decomposition:
  --------------------
     E_cls_elec  (CLS ELEC)  (kJ/mol) = -44.0922
     E_mod_pauli (MOD PAULI) (kJ/mol) = 53.1657 (FRZ - CLS ELEC - CLS DISP)
     E_cls_disp  (CLS DISP)  (kJ/mol) = -18.6899
  --------------------
--------------------

Simplified EDA Summary (kJ/mol)
--------------------
 PREPARATION      0.0000
 FROZEN           -9.6164 (ELEC + PAULI + DISP)
[ELEC + PAULI = 9.0735, DISP = -18.6899]
 POLARIZATION    -7.8192
 CHARGE TRANSFER -9.6564
 TOTAL           -27.0920     (PRP + FRZ + POL + CT)
--------------------
 
 --------------------------------------------------------------
 
                    Orbital Energies (a.u.)
 --------------------------------------------------------------
 
 Alpha MOs
 -- Occupied --
-19.3550 -19.3066 -10.4000 -10.3758 -10.3321 -10.3210  -1.1742  -1.1314
 -0.8842  -0.8613  -0.7385  -0.7186  -0.6507  -0.6224  -0.5860  -0.5574
 -0.5286  -0.5023  -0.4909  -0.4872  -0.4756  -0.4595  -0.4523  -0.4151
 -0.3966  -0.3612
 -- Virtual --
  0.0263   0.0504   0.0556   0.0591   0.0805   0.0845   0.0919   0.0989
  0.1082   0.1242   0.1347   0.1416   0.1474   0.1505   0.1588   0.1684
  0.1751   0.1881   0.1907   0.1930   0.1991   0.2057   0.2230   0.2299
  0.2446   0.2494   0.2550   0.2561   0.2708   0.2741   0.2820   0.2899
  0.2932   0.2960   0.3027   0.3067   0.3105   0.3143   0.3166   0.3264
  0.3319   0.3331   0.3381   0.3391   0.3456   0.3507   0.3612   0.3636
  0.3641   0.3720   0.3834   0.3872   0.3914   0.3968   0.4055   0.4080
  0.4213   0.4242   0.4278   0.4411   0.4457   0.4497   0.4513   0.4565
  0.4580   0.4612   0.4727   0.4779   0.4845   0.4935   0.4963   0.4994
  0.5058   0.5143   0.5239   0.5349   0.5475   0.5552   0.5567   0.5636
  0.5739   0.5794   0.5965   0.6079   0.6113   0.6173   0.6338   0.6440
  0.6656   0.6729   0.6824   0.6893   0.6986   0.7013   0.7056   0.7156
  0.7199   0.7306   0.7359   0.7473   0.7560   0.7614   0.7640   0.7695
  0.7750   0.7853   0.7909   0.8016   0.8124   0.8184   0.8384   0.8447
  0.8530   0.8626   0.8695   0.8833   0.8984   0.9091   0.9261   0.9344
  0.9496   0.9696   0.9800   0.9918   1.0071   1.0196   1.0321   1.0512
  1.0661   1.0879   1.1030   1.1206   1.1342   1.1449   1.1514   1.1665
  1.1741   1.1945   1.2042   1.2142   1.2335   1.2449   1.2468   1.2652
  1.2771   1.3075   1.3166   1.3270   1.3392   1.3418   1.3478   1.3600
  1.3716   1.3848   1.3877   1.3898   1.4133   1.4196   1.4309   1.4366
  1.4629   1.4789   1.5026   1.5129   1.5231   1.5424   1.5500   1.5872
  1.5926   1.6108   1.6377   1.6432   1.6500   1.6742   1.6920   1.7000
  1.7104   1.7155   1.7385   1.7617   1.7764   1.7829   1.7871   1.8120
  1.8354   1.8625   1.9410   1.9519   1.9700   1.9873   2.0324   2.0657
  2.0885   2.0980   2.1163   2.1587   2.2063   2.2467   2.2609   2.2794
  2.3071   2.3135   2.3314   2.3969   2.4044   2.4124   2.4614   2.4899
  2.5196   2.5472   2.6830   2.7121   2.7237   2.7405   2.7657   2.8092
  2.8596   2.8656   2.8813   2.8867   2.9075   2.9231   2.9429   2.9452
  2.9596   2.9712   2.9805   3.0048   3.0170   3.0308   3.0461   3.0520
  3.0708   3.0793   3.0882   3.1163   3.1351   3.1641   3.1836   3.2003
  3.2156   3.2201   3.2235   3.2541   3.2639   3.2814   3.2889   3.2918
  3.3015   3.3027   3.3200   3.3226   3.3431   3.3693   3.3973   3.4078
  3.4304   3.4557   3.4826   3.4910   3.5051   3.5148   3.5576   3.5690
  3.5955   3.6052   3.6075   3.6221   3.6314   3.6444   3.6601   3.6997
  3.7119   3.7251   3.7471   3.7495   3.7689   3.7867   3.8121   3.8298
  3.8346   3.8723   3.8943   3.9093   3.9181   3.9515   3.9919   4.0063
  4.0116   4.0334   4.0338   4.0576   4.0882   4.1008   4.1100   4.1186
  4.1272   4.1402   4.1467   4.1632   4.1819   4.1924   4.2043   4.2202
  4.2475   4.2511   4.2638   4.2797   4.2884   4.2945   4.3117   4.3224
  4.3461   4.3698   4.3877   4.4028   4.4383   4.4398   4.4751   4.4843
  4.4992   4.5042   4.5149   4.5435   4.5608   4.5748   4.6092   4.6479
  4.6542   4.6803   4.7157   4.7296   4.7415   4.7939   4.8039   4.8231
  4.8426   4.8712   4.9335   4.9484   4.9574   4.9692   4.9712   4.9935
  5.0220   5.0249   5.0458   5.1292   5.1424   5.1619   5.2123   5.2680
  5.2950   5.3109   5.3321   5.3771   5.4158   5.4187   5.4284   5.4398
  5.4440   5.4512   5.4767   5.5081   5.5227   5.5310   5.5947   5.6010
  5.6223   5.6458   5.6739   5.7142   5.7457   5.7578   5.7758   5.8083
  5.8197   5.8227   5.9344   5.9586   6.0799   6.1274   6.2531   6.3153
  6.6532   6.6946   6.8434   6.8589   6.8699   6.9449   6.9624   7.0742
  7.1156   7.1729   7.3672   7.3969   7.5476   7.6098   7.7911   7.8479
 23.7456  23.8314  24.0568  24.0832  44.7957  44.8807
 --------------------------------------------------------------
 
          Ground-State Mulliken Net Atomic Charges

     Atom                 Charge (a.u.)
  ----------------------------------------
      1 C                    -1.005253
      2 C                    -0.200420
      3 O                    -0.418604
      4 H                     0.136955
      5 H                     0.286276
      6 H                     0.224832
      7 H                     0.323334
      8 H                     0.269048
      9 H                     0.389190
     10 C                    -0.974558
     11 C                    -0.164806
     12 O                    -0.504953
     13 H                     0.295216
     14 H                     0.304143
     15 H                     0.270645
     16 H                     0.212803
     17 H                     0.325594
     18 H                     0.230559
  ----------------------------------------
  Sum of atomic charges =     0.000000

 -----------------------------------------------------------------
                    Cartesian Multipole Moments
 -----------------------------------------------------------------
    Charge (ESU x 10^10)
                 0.0000
    Dipole Moment (Debye)
         X      -1.6864      Y       0.1345      Z      -2.8953
       Tot       3.3534
    Quadrupole Moments (Debye-Ang)
        XX     -38.8561     XY       0.9065     YY     -38.9902
        XZ       0.1765     YZ       3.2673     ZZ     -41.7444
    Octopole Moments (Debye-Ang^2)
       XXX      -5.3196    XXY      -2.1189    XYY      -6.8421
       YYY     -13.8345    XXZ      -5.8001    XYZ      -1.9396
       YYZ      -4.4515    XZZ      -6.9559    YZZ      -3.4608
       ZZZ      -1.7155
    Hexadecapole Moments (Debye-Ang^3)
      XXXX    -824.0536   XXXY       3.3872   XXYY    -181.1200
      XYYY      11.0578   YYYY    -243.6244   XXXZ      13.5738
      XXYZ       9.8554   XYYZ       9.8535   YYYZ       8.2499
      XXZZ    -161.7378   XYZZ       9.3747   YYZZ     -66.5560
      XZZZ       1.4606   YZZZ       3.2669   ZZZZ    -154.1229
 -----------------------------------------------------------------
 Total job time:  1599.85s(wall), 6111.61s(cpu) 
 Fri Feb 28 10:00:01 2025

        *************************************************************
        *                                                           *
        *  Thank you very much for using Q-Chem.  Have a nice day.  *
        *                                                           *
        *************************************************************


