
Running Job 1 of 1 004_ethanol_dimer_76_almo.inp
qchem 004_ethanol_dimer_76_almo.inp_180765.0 /scratch/qchem180765/ 6
/home/kchung25/qchem/5.4.0/exe/qcprog.exe_s 004_ethanol_dimer_76_almo.inp_180765.0 /scratch/qchem180765/
                  Welcome to Q-Chem
     A Quantum Leap Into The Future Of Chemistry


 Q-Chem 5.4, Q-Chem, Inc., Pleasanton, CA (2021)

 E. Epifanovsky,  A. T. B. Gilbert,  Xintian Feng,  Joonho Lee,  Yuezhi Mao,  
 N. Mardirossian,  P. Pokhilko,  A. White,  M. Wormit,  M. P. Coons,  
 A. L. Dempwolff,  Zhengting Gan,  D. Hait,  P. R. Horn,  L. D. Jacobson,  
 I. Kaliman,  J. Kussmann,  A. W. Lange,  Ka Un Lao,  D. S. Levine,  Jie Liu,  
 S. C. McKenzie,  A. F. Morrison,  K. Nanda,  F. Plasser,  D. R. Rehn,  
 M. L. Vidal,  Zhi-Qiang You,  Ying Zhu,  B. Alam,  B. Albrecht,  
 A. Aldossary,  E. Alguire,  J. H. Andersen,  D. Barton,  K. Begam,  A. Behn,  
 Y. A. Bernard,  E. J. Berquist,  H. Burton,  A. Carreras,  K. Carter-Fenk,  
 Romit Chakraborty,  A. D. Chien,  K. D. Closser,  V. Cofer-Shabica,  
 S. Dasgupta,  Jia Deng,  M. de Wergifosse,  M. Diedenhofen,  Hainam Do,  
 S. Ehlert,  Po-Tung Fang,  S. Fatehi,  Qingguo Feng,  T. Friedhoff,  
 J. Gayvert,  Qinghui Ge,  G. Gidofalvi,  M. Goldey,  J. Gomes,  
 C. Gonzalez-Espinoza,  S. Gulania,  A. Gunina,  M. W. D. Hanson-Heine,  
 P. H. P. Harbach,  A. W. Hauser,  M. F. Herbst,  M. Hernandez Vera,  
 M. Hodecker,  Z. C. Holden,  S. Houck,  Xunkun Huang,  Kerwin Hui,  
 B. C. Huynh,  M. Ivanov,  Hyunjun Ji,  Hanjie Jiang,  B. Kaduk,  S. Kaehler,  
 K. Khistyaev,  Jaehoon Kim,  P. Klunzinger,  Z. Koczor-Benda,  
 Joong Hoon Koh,  D. Kosenkov,  L. Koulias,  T. Kowalczyk,  C. M. Krauter,  
 K. Kue,  A. Kunitsa,  T. Kus,  A. Landau,  K. V. Lawler,  D. Lefrancois,  
 S. Lehtola,  Rain Li,  Yi-Pei Li,  Jiashu Liang,  M. Liebenthal,  
 Hung-Hsuan Lin,  You-Sheng Lin,  Fenglai Liu,  Kuan-Yu Liu,  
 M. Loipersberger,  A. Luenser,  A. Manjanath,  P. Manohar,  E. Mansoor,  
 S. F. Manzer,  Shan-Ping Mao,  A. V. Marenich,  T. Markovich,  S. Mason,  
 S. A. Maurer,  P. F. McLaughlin,  M. F. S. J. Menger,  J.-M. Mewes,  
 S. A. Mewes,  P. Morgante,  J. W. Mullinax,  K. J. Oosterbaan,  G. Paran,  
 Alexander C. Paul,  Suranjan K. Paul,  F. Pavosevic,  Zheng Pei,  S. Prager,  
 E. I. Proynov,  E. Ramos,  B. Rana,  A. E. Rask,  A. Rettig,  R. M. Richard,  
 F. Rob,  E. Rossomme,  T. Scheele,  M. Scheurer,  M. Schneider,  
 N. Sergueev,  S. M. Sharada,  W. Skomorowski,  D. W. Small,  C. J. Stein,  
 Yu-Chuan Su,  E. J. Sundstrom,  Zhen Tao,  J. Thirman,  T. Tsuchimochi,  
 N. M. Tubman,  S. P. Veccham,  O. Vydrov,  J. Wenzel,  J. Witte,  A. Yamada,  
 Kun Yao,  S. Yeganeh,  S. R. Yost,  A. Zech,  Igor Ying Zhang,  Xing Zhang,  
 Yu Zhang,  D. Zuev,  A. Aspuru-Guzik,  A. T. Bell,  N. A. Besley,  
 K. B. Bravaya,  B. R. Brooks,  D. Casanova,  Jeng-Da Chai,  S. Coriani,  
 C. J. Cramer,  A. E. DePrince, III,  R. A. DiStasio Jr.,  A. Dreuw,  
 B. D. Dunietz,  T. R. Furlani,  W. A. Goddard III,  S. Grimme,  
 S. Hammes-Schiffer,  T. Head-Gordon,  W. J. Hehre,  Chao-Ping Hsu,  
 T.-C. Jagau,  Yousung Jung,  A. Klamt,  Jing Kong,  D. S. Lambrecht,  
 WanZhen Liang,  N. J. Mayhall,  C. W. McCurdy,  J. B. Neaton,  T. Neudecker,  
 C. Ochsenfeld,  J. A. Parkhill,  R. Peverati,  V. A. Rassolov,  Yihan Shao,  
 L. V. Slipchenko,  R. P. Steele,  J. E. Subotnik,  A. J. W. Thom,  
 A. Tkatchenko,  D. G. Truhlar,  T. Van Voorhis,  T. A. Wesolowski,  
 K. B. Whaley,  H. L. Woodcock III,  P. M. Zimmerman,  S. Faraji,  
 P. M. W. Gill,  M. Head-Gordon,  J. M. Herbert,  A. I. Krylov

 Additional authors since Version 5.4.0: 
 Chandrima Chakravarty,  L. Cunha,  R. Kang,  Yongbin Kim,  S. Kotaru,  
 Shaozhi Li,  Xiangyuan Li,  F. Matz,  A. Molle,  V. Parravicini,  
 Haisheng Ren,  Hengyuan Shen,  Yingli Su,  Hung-Yi Tsai,  C. Utku,  
 Fang Wang,  Jeff Yang,  F. Zeller

 Contributors to earlier versions of Q-Chem not listed above: 
 R. D. Adamson,  B. Austin,  R. Baer,  J. Baker,  G. J. O. Beran,  
 K. Brandhorst,  S. T. Brown,  E. F. C. Byrd,  Arup K. Chakraborty,  
 G. K. L. Chan,  Chun-Min Chang,  Yunqing Chen,  C.-L. Cheng,  
 Siu Hung Chien,  D. M. Chipman,  D. L. Crittenden,  H. Dachsel,  
 R. J. Doerksen,  A. D. Dutoi,  R. G. Edgar,  J. Fosso-Tande,  
 L. Fusti-Molnar,  D. Ghosh,  A. Ghysels,  A. Golubeva-Zadorozhnaya,  
 J. Gonthier,  M. S. Gordon,  S. R. Gwaltney,  G. Hawkins,  J. E. Herr,  
 A. Heyden,  S. Hirata,  E. G. Hohenstein,  G. Kedziora,  F. J. Keil,  
 C. Kelley,  Jihan Kim,  R. A. King,  R. Z. Khaliullin,  P. P. Korambath,  
 W. Kurlancheek,  A. Laurent,  A. M. Lee,  M. S. Lee,  S. V. Levchenko,  
 Ching Yeh Lin,  D. Liotard,  E. Livshits,  R. C. Lochan,  I. Lotan,  
 L. A. Martinez-Martinez,  P. E. Maslen,  N. Nair,  D. P. O'Neill,  
 D. Neuhauser,  E. Neuscamman,  C. M. Oana,  R. Olivares-Amaya,  R. Olson,  
 T. M. Perrine,  B. Peters,  P. A. Pieniazek,  A. Prociuk,  Y. M. Rhee,  
 J. Ritchie,  M. A. Rohrdanz,  E. Rosta,  N. J. Russ,  H. F. Schaefer III,  
 M. W. Schmidt,  N. E. Schultz,  S. Sharma,  N. Shenvi,  C. D. Sherrill,  
 A. C. Simmonett,  A. Sodt,  T. Stein,  D. Stuck,  K. S. Thanthiriwatte,  
 V. Vanovschi,  L. Vogt,  Tao Wang,  A. Warshel,  M. A. Watson,  
 C. F. Williams,  Q. Wu,  X. Xu,  Jun Yang,  W. Zhang,  Yan Zhao

   Please cite Q-Chem as follows:
  "Software for the frontiers of quantum chemistry:
   An overview of developments in the Q-Chem 5 package"
   J. Chem. Phys. 155, 084801 (2021)
   https://doi.org/10.1063/5.0055522 (open access)

 Q-Chem 5.4.2 for Intel X86 EM64T Linux

 Parts of Q-Chem use Armadillo 9.900.5 (Nocturnal Misbehaviour).
 http://arma.sourceforge.net/

 Q-Chem begins on Sat Mar  1 07:14:39 2025  

 Host: 
0

     Scratch files written to /scratch/qchem180765//
 Dec1321 |scratch|qcdevops|jenkins|workspace|build_RNUM 5684   
 Processing $rem in /home/kchung25/qchem/5.4.0/config/preferences:
 Processing $rem in /home/kchung25/.qchemrc:

 Q-Chem warning in module libgen/rem_setup.C, line 3079:

 Neither GIA nor STOLL is specified by user. Use STOLL as the default


 Checking the input file for inconsistencies... 	...done.

--------------------------------------------------------------
User input:
--------------------------------------------------------------
$molecule
0 1
--
0 1
C   -1.475476   0.559489  -0.311796
C   -2.845680  -0.030863  -0.532347
O   -3.351979  -0.661248   0.620729
H   -3.399111  -0.010457   1.325488
H   -1.080118   1.002664  -1.228730
H   -0.778691  -0.210094   0.028275
H   -1.505016   1.345121   0.449598
H   -2.807199  -0.804793  -1.303177
H   -3.538143   0.741653  -0.897109
--
0 1
C    2.033266   0.985127   0.594046
C    2.482344   0.039189  -0.491480
O    3.199458  -1.062061   0.013739
H    2.638174  -1.527834   0.638715
H    1.511086   1.848424   0.175115
H    2.888577   1.342142   1.170665
H    1.344434   0.487393   1.284161
H    3.161241   0.546368  -1.181959
H    1.618213  -0.291760  -1.087322
$end

$rem
JOBTYPE          eda
EDA2             1
METHOD           wB97M-V
BASIS            def2-TZVPPD
SYMMETRY         false
MEM_TOTAL        50000
MEM_STATIC       10000
THRESH           14
SCF_CONVERGENCE  8
XC_GRID          000099000590
NL_GRID          1
EDA_CLS_DISP     true
FD_MAT_VEC_PROD  FALSE
$end
--------------------------------------------------------------
 ----------------------------------------------------------------
             Standard Nuclear Orientation (Angstroms)
    I     Atom           X                Y                Z
 ----------------------------------------------------------------
    1      C       1.4754760820    -0.5594887215    -0.3117961815
    2      C       2.8456800663     0.0308633912    -0.5323469776
    3      O       3.3519790244     0.6612480583     0.6207292228
    4      H       3.3991110333     0.0104568461     1.3254880263
    5      H       1.0801181135    -1.0026634565    -1.2287303231
    6      H       0.7786910502     0.2100941521     0.0282750394
    7      H       1.5050160945    -1.3451209515     0.4495975807
    8      H       2.8071990544     0.8047936238    -1.3031767435
    9      H       3.5381430987    -0.7416524750    -0.8971091994
   10      C      -2.0332659201    -0.9851271136     0.5940456259
   11      C      -2.4823439321    -0.0391887992    -0.4914800953
   12      O      -3.1994579781     1.0620610235     0.0137392258
   13      H      -2.6381740049     1.5278338527     0.6387153773
   14      H      -1.5110858837    -1.8484239690     0.1751143734
   15      H      -2.8885769186    -1.3421423171     1.1706645021
   16      H      -1.3444339493    -0.4873932999     1.2841607893
   17      H      -3.1612409026    -0.5463676125    -1.1819592615
   18      H      -1.6182129324     0.2917604104    -1.0873219792
 ----------------------------------------------------------------
 Molecular Point Group                 C1    NOp =  1
 Largest Abelian Subgroup              C1    NOp =  1
 Nuclear Repulsion Energy =         235.32214339 hartrees
 There are       26 alpha and       26 beta electrons
 Requested basis set is def2-TZVPPD
 There are 164 shells and 432 basis functions

 Q-Chem warning in module libmdc/get_mega.C, line 171:

 Allowed MEM_STATIC has been capped at MEM_STATIC=8191.
 Reduce the value of MEM_STATIC to silence this warning.


 Total QAlloc Memory Limit  50000 MB
 Mega-Array Size      8007 MB
 MEM_STATIC part      8191 MB
 A cutoff of  1.0D-14 yielded  11952 shell pairs
 There are     81172 function pairs (     99250 Cartesian)
 Smallest overlap matrix eigenvalue = 7.71E-06

 Scale SEOQF with 1.000000e-01/1.000000e-01/1.000000e-01

 Standard Electronic Orientation quadrupole field applied
 Nucleus-field energy     =     0.0000000130 hartrees

 -----------------------------------------------------------------------
  General SCF calculation program by
  Eric Jon Sundstrom, Paul Horn, Yuezhi Mao, Dmitri Zuev, Alec White,
  David Stuck, Shaama M.S., Shane Yost, Joonho Lee, David Small,
  Daniel Levine, Susi Lehtola, Hugh Burton, Evgeny Epifanovsky,
  Bang C. Huynh
 -----------------------------------------------------------------------
================================================================
                 ALMO-EDA with the EDA2 driver                  
================================================================
 The second-generation ALMO-EDA (for DFT):                      
 P. R. Horn, Y. Mao and M. Head-Gordon, PCCP, 18, 23067 (2016)  
 Y. Mao et al. Annu. Rev. Phys. Chem. 72, 641 (2021)            
 Decomposition of the frozen energy:                            
 P. R. Horn, Y. Mao and M. Head-Gordon, JCP, 144, 114107 (2016) 
 FERF model for polarization:                                   
 P. R. Horn and M. Head-Gordon, JCP, 143, 114111 (2015)         
================================================================
 Using eda2 option set 1
 Option set summary: Frozen orbital wavefunction, initial wavefunction decomposition, and nDQ polarization.
--------------------------------
Printing EDA Options
--------------------------------
eda_child_super_basis      0
fragmo_guess_mode          0
child_mp                   1
child_mp_orders            232
cls_elec                   1
cls_disp                   1
scfmi_mode                 1
scfmi_occs                 0
scfmi_virts                0
frz_relax                  0
frz_relax_method           0
dc_pen_start               0
dc_pen_conv                0
dc_pen_increment           0
dc_pen_steps               0
dc_pen_thresh_factor       0
dc_pen_pre_newton_thresh   0
frz_ortho_decomp           1
frz_ortho_decomp_conv      6
plot_mo_ortho_frz          0
frgm_method                2
scfmi_freeze_ss            0
separate_rehyb             0
plot_diff_den              0
eda_nocv                   0
eda_vct_relax              1
disp_free_x                0
disp_free_c                0
eda_bsse                   0
eda_pct_a                  0
eda_covp                   0
--------------------------------
Attempting to make child job directory: /scratch/qchem180765//Frg1/
Attempting to make child job directory: /scratch/qchem180765//Frg2/
Creating input file /scratch/qchem180765/Frg1.input
using default PutDataFrgm: nothing
calling putenv with: QCSCRATCH=/scratch/qchem180765/ 
Spawning Job For Fragment 0
Done Job For Fragment 0
calling putenv with: QCSCRATCH=/scratch 
calling putenv with: QCTHREADS=6 
Creating input file /scratch/qchem180765/Frg2.input
using default PutDataFrgm: nothing
calling putenv with: QCSCRATCH=/scratch/qchem180765/ 
Spawning Job For Fragment 1
Done Job For Fragment 1
calling putenv with: QCSCRATCH=/scratch 
calling putenv with: QCTHREADS=6 
Doing General SCFMI
 Exchange:     0.1500 Hartree-Fock + 1.0000 wB97M-V + LR-HF
 Correlation:  1.0000 wB97M-V
 Using Euler-Maclaurin-Lebedev (99,590) quadrature formula
 Nonlocal Correlation:  VV10 with C = 0.0100 and b = 6.00 and scale = 1.00000
 Grid used for NLC:  SG-1 standard quadrature
performing fock build before subrot guess so that all methods have access
Printing subrot_rss_gen Method Specification:
Occupied Subspace Method is 0
Virtual Subspace Method is 0
Energy of the unrelaxed supersystem initial determinant -310.059721046326
write pseudocanon occs and virts to disk
write pseudocanon orbital energies to disk
Tolerance of ortho_decomp_scf: 1.00e-06
GDM subspace size: 20
Beginning the Orthogonal Decomposition of the Initial Supersystem Wavefunction
    1    -310.0515311619      2.39e-02     ortho_decomp Preconditoned Steepest Descent
    2    -310.0522667790      6.22e-04     ortho_decomp BFGS Step
    3    -310.0522690279      4.30e-05     ortho_decomp BFGS Step
    4    -310.0522690320      1.97e-06     ortho_decomp BFGS Step
    5    -310.0522690320      8.38e-08     ortho_decomp 00000 Convergence criterion met
 Hartree-Fock
 Hartree-Fock
 Hartree-Fock
 Exchange:     0.1500 Hartree-Fock + 1.0000 wB97M-V + LR-HF
 Correlation:  1.0000 wB97M-V
 Using Euler-Maclaurin-Lebedev (99,590) quadrature formula
 Nonlocal Correlation:  VV10 with C = 0.0100 and b = 6.00 and scale = 1.00000
 Grid used for NLC:  SG-1 standard quadrature
 Long-range K will be added via erf
 Coulomb attenuation parameter = 0.3 bohr**(-1)
 Nonlocal correlation = 2.055100864319e-01
Doing General SCFMI
 Exchange:     0.1500 Hartree-Fock + 1.0000 wB97M-V + LR-HF
 Correlation:  1.0000 wB97M-V
 Using Euler-Maclaurin-Lebedev (99,590) quadrature formula
 Nonlocal Correlation:  VV10 with C = 0.0100 and b = 6.00 and scale = 1.00000
 Grid used for NLC:  SG-1 standard quadrature
performing fock build at end of subrot_r(subrot) constructor so that all methods have access
<S^2> of initial wavefunction before polarization iterations 0.0000000000
Beginning iterations for the determination of the polarized wavefunction
Energy prior to optimization (guess energy) = -310.059721046326
Begin Timing: Total SCF Calculation
begin iterations for algorithm: DIIS         
the SCF tolerance is set to 1.00e-08
    1    -310.0597210463      6.07e-05     00000 
    2    -310.0598330188      2.31e-05     00000 
    3    -310.0598423184      1.04e-05     00000 
    4    -310.0598445557      3.18e-06     00000 
    5    -310.0598448009      1.67e-06     00000 
    6    -310.0598448662      6.48e-07     00000 
    7    -310.0598448763      1.31e-07     00000 
    8    -310.0598448769      2.62e-08     00000 
    9    -310.0598448769      9.24e-09     00000 Convergence criterion met
write pseudocanon occs and virts to disk
write pseudocanon orbital energies to disk
Timing for Total SCF: 190.00s (wall), 1140.40s (cpu)
<S^2> of polarized wavefunction after polarization iterations 0.0000000000
relaxing scfmi constraint to allow all rotations in the entire AO span
Doing General SCFMI
 Exchange:     0.1500 Hartree-Fock + 1.0000 wB97M-V + LR-HF
 Correlation:  1.0000 wB97M-V
 Using Euler-Maclaurin-Lebedev (99,590) quadrature formula
 Nonlocal Correlation:  VV10 with C = 0.0100 and b = 6.00 and scale = 1.00000
 Grid used for NLC:  SG-1 standard quadrature
performing fock build at end of subrot_r(subrot) constructor so that all methods have access
<S^2> of polarized wavefunction before ct-allowed iterations 0.0000000000
Beginning iterations for the determination of the CT-Allowed wavefunction
Energy prior to optimization (guess energy) = -310.059844876904
Begin Timing: Total SCF Calculation
begin iterations for algorithm: DIIS         
the SCF tolerance is set to 1.00e-08
    1    -310.0598448769      5.44e-05     00000 
    2    -310.0601062157      5.35e-06     00000 
    3    -310.0601121319      1.21e-06     00000 
    4    -310.0601122927      6.51e-07     00000 
    5    -310.0601123333      1.07e-07     00000 
    6    -310.0601123343      5.11e-08     00000 
    7    -310.0601123345      1.35e-08     00000 
    8    -310.0601123345      1.92e-09     00000 Convergence criterion met
write pseudocanon occs and virts to disk
write pseudocanon orbital energies to disk
Timing for Total SCF: 165.00s (wall), 992.90s (cpu)
<S^2> of ct_allowed wavefunction after ct-allowed iterations 0.0000000000

================================
        Results of EDA2         
================================
Basic EDA Quantities
--------------------
Fragment Energies (Ha):
1 -155.0294052332
2 -155.0294022075
--------------------
  E_prp (kJ/mol) = -0.0000
  E_frz (kJ/mol) = -2.3987
  E_pol (kJ/mol) = -0.3251
  E_vct (kJ/mol) = -0.7022
  E_int (kJ/mol) = -3.4260
--------------------


Decomposition of frozen interaction energy
--------------------
  --------------------
  Orthogonal Frozen Decomposition:
  --------------------
     E_elec   (ELEC)   (kJ/mol) = -7.7742
     E_pauli  (PAULI)  (kJ/mol) = 12.8828
     E_disp   (DISP)   (kJ/mol) = -7.5073
  --------------------
  Classical Frozen Decomposition:
  --------------------
     E_cls_elec  (CLS ELEC)  (kJ/mol) = -2.1275
     E_mod_pauli (MOD PAULI) (kJ/mol) = 6.5636 (FRZ - CLS ELEC - CLS DISP)
     E_cls_disp  (CLS DISP)  (kJ/mol) = -6.8349
  --------------------
--------------------

Simplified EDA Summary (kJ/mol)
--------------------
 PREPARATION      -0.0000
 FROZEN           -2.3987 (ELEC + PAULI + DISP)
[ELEC + PAULI = 4.4362, DISP = -6.8349]
 POLARIZATION    -0.3251
 CHARGE TRANSFER -0.7022
 TOTAL           -3.4260     (PRP + FRZ + POL + CT)
--------------------
 
 --------------------------------------------------------------
 
                    Orbital Energies (a.u.)
 --------------------------------------------------------------
 
 Alpha MOs
 -- Occupied --
-19.3349 -19.3316 -10.3904 -10.3875 -10.3392 -10.3350  -1.1575  -1.1542
 -0.8780  -0.8728  -0.7478  -0.7435  -0.6208  -0.6154  -0.5686  -0.5655
 -0.5512  -0.5450  -0.4927  -0.4859  -0.4791  -0.4740  -0.4326  -0.4287
 -0.3857  -0.3811
 -- Virtual --
  0.0289   0.0451   0.0528   0.0580   0.0699   0.0746   0.0801   0.1019
  0.1052   0.1098   0.1161   0.1207   0.1323   0.1406   0.1471   0.1541
  0.1652   0.1671   0.1719   0.1887   0.1980   0.2020   0.2096   0.2177
  0.2251   0.2276   0.2396   0.2467   0.2544   0.2657   0.2687   0.2761
  0.2792   0.2893   0.2935   0.2965   0.2995   0.3060   0.3103   0.3113
  0.3193   0.3242   0.3318   0.3356   0.3393   0.3402   0.3507   0.3548
  0.3570   0.3641   0.3653   0.3735   0.3787   0.3846   0.3886   0.3984
  0.4019   0.4081   0.4140   0.4161   0.4262   0.4283   0.4381   0.4418
  0.4479   0.4498   0.4566   0.4635   0.4710   0.4751   0.4775   0.4847
  0.4936   0.4974   0.5055   0.5180   0.5243   0.5378   0.5423   0.5566
  0.5656   0.5709   0.5743   0.5772   0.5795   0.6029   0.6106   0.6179
  0.6239   0.6356   0.6423   0.6525   0.6582   0.6678   0.6821   0.6867
  0.6955   0.7040   0.7142   0.7231   0.7330   0.7408   0.7490   0.7595
  0.7662   0.7754   0.7758   0.7805   0.7852   0.7976   0.8014   0.8137
  0.8176   0.8280   0.8465   0.8529   0.8605   0.8793   0.8999   0.9216
  0.9265   0.9332   0.9417   0.9755   0.9780   0.9998   1.0024   1.0142
  1.0267   1.0309   1.0678   1.0872   1.1035   1.1123   1.1206   1.1432
  1.1489   1.1595   1.1711   1.1797   1.1976   1.2144   1.2241   1.2290
  1.2400   1.2567   1.2594   1.2755   1.2901   1.3021   1.3116   1.3236
  1.3376   1.3470   1.3582   1.3613   1.3763   1.3904   1.4055   1.4160
  1.4244   1.4408   1.4503   1.4733   1.4901   1.4993   1.5307   1.5475
  1.5685   1.5788   1.5906   1.6234   1.6374   1.6595   1.6680   1.6751
  1.6872   1.6993   1.7120   1.7172   1.7333   1.7482   1.7712   1.7768
  1.8029   1.8223   1.9208   1.9418   1.9515   1.9738   2.0036   2.0222
  2.0548   2.0816   2.1135   2.1364   2.1647   2.1962   2.2110   2.2201
  2.2653   2.2687   2.3314   2.3447   2.3652   2.3862   2.4318   2.4613
  2.4669   2.4874   2.6721   2.6920   2.7406   2.7469   2.7840   2.7890
  2.8114   2.8298   2.8412   2.8546   2.8872   2.8951   2.9003   2.9197
  2.9226   2.9359   2.9618   2.9757   2.9904   3.0009   3.0263   3.0364
  3.0375   3.0497   3.0549   3.0718   3.0787   3.1034   3.1351   3.1558
  3.1625   3.1700   3.2155   3.2328   3.2371   3.2455   3.2537   3.2783
  3.2806   3.2927   3.2951   3.2993   3.3260   3.3351   3.3406   3.3582
  3.3995   3.4047   3.4118   3.4252   3.4561   3.4574   3.5108   3.5188
  3.5648   3.5688   3.5814   3.5866   3.5991   3.6148   3.6435   3.6479
  3.6963   3.7058   3.7253   3.7333   3.7384   3.7528   3.7778   3.7839
  3.8005   3.8188   3.8522   3.8563   3.9042   3.9206   3.9680   3.9904
  3.9985   4.0280   4.0313   4.0425   4.0488   4.0649   4.0878   4.0938
  4.1073   4.1278   4.1409   4.1445   4.1660   4.1745   4.1863   4.1959
  4.2079   4.2131   4.2230   4.2473   4.2666   4.2714   4.2808   4.2916
  4.3032   4.3205   4.3557   4.3709   4.4018   4.4113   4.4381   4.4485
  4.4613   4.4811   4.4919   4.5050   4.5236   4.5477   4.5869   4.5913
  4.6633   4.6757   4.6918   4.7033   4.7326   4.7609   4.7882   4.7966
  4.8105   4.8384   4.9350   4.9395   4.9598   4.9738   4.9794   4.9894
  5.0198   5.0372   5.0589   5.0657   5.1311   5.1405   5.2030   5.2149
  5.2860   5.2944   5.3193   5.3274   5.4005   5.4106   5.4135   5.4169
  5.4357   5.4485   5.4620   5.4660   5.4888   5.5262   5.5790   5.5906
  5.6060   5.6122   5.6556   5.6607   5.7318   5.7362   5.7466   5.7504
  5.8101   5.8188   5.8911   5.9010   6.1106   6.1147   6.2857   6.2888
  6.6556   6.6566   6.8143   6.8170   6.8890   6.8926   6.9697   6.9788
  7.0577   7.0638   7.3542   7.3675   7.5401   7.5468   7.7641   7.7736
 23.7263  23.7378  24.0415  24.1223  44.7099  44.7211
 --------------------------------------------------------------
 
          Ground-State Mulliken Net Atomic Charges

     Atom                 Charge (a.u.)
  ----------------------------------------
      1 C                    -0.746148
      2 C                    -0.341470
      3 O                    -0.379581
      4 H                     0.127606
      5 H                     0.297863
      6 H                     0.186505
      7 H                     0.295939
      8 H                     0.264777
      9 H                     0.289116
     10 C                    -0.922367
     11 C                    -0.116488
     12 O                    -0.390734
     13 H                     0.130672
     14 H                     0.238967
     15 H                     0.323296
     16 H                     0.244909
     17 H                     0.277232
     18 H                     0.219905
  ----------------------------------------
  Sum of atomic charges =     0.000000

 -----------------------------------------------------------------
                    Cartesian Multipole Moments
 -----------------------------------------------------------------
    Charge (ESU x 10^10)
                -0.0000
    Dipole Moment (Debye)
         X       1.0325      Y      -2.1192      Z       0.2921
       Tot       2.3753
    Quadrupole Moments (Debye-Ang)
        XX     -53.4218     XY      -2.2292     YY     -41.5008
        XZ      -0.9528     YZ       0.1710     ZZ     -37.9297
    Octopole Moments (Debye-Ang^2)
       XXX      23.3194    XXY     -34.3156    XYY      -2.7104
       YYY       7.3659    XXZ       3.3398    XYZ     -10.5362
       YYZ       2.3981    XZZ       5.6077    YZZ       2.1350
       ZZZ       5.8194
    Hexadecapole Moments (Debye-Ang^3)
      XXXX   -1952.0570   XXXY     -11.6509   XXYY    -339.0333
      XYYY     -13.2633   YYYY    -188.9206   XXXZ      14.8444
      XXYZ      -5.8640   XYYZ     -11.0024   YYYZ       6.6971
      XXZZ    -274.7778   XYZZ      -6.0716   YYZZ     -53.5609
      XZZZ      21.4202   YZZZ       2.6331   ZZZZ    -134.2748
 -----------------------------------------------------------------
 Total job time:  1349.34s(wall), 4535.03s(cpu) 
 Sat Mar  1 07:37:08 2025

        *************************************************************
        *                                                           *
        *  Thank you very much for using Q-Chem.  Have a nice day.  *
        *                                                           *
        *************************************************************


