
Running Job 1 of 1 004_ethanol_dimer_17_almo.inp
qchem 004_ethanol_dimer_17_almo.inp_110780.0 /scratch/qchem110780/ 6
/home/kchung25/qchem/5.4.0/exe/qcprog.exe_s 004_ethanol_dimer_17_almo.inp_110780.0 /scratch/qchem110780/
                  Welcome to Q-Chem
     A Quantum Leap Into The Future Of Chemistry


 Q-Chem 5.4, Q-Chem, Inc., Pleasanton, CA (2021)

 E. Epifanovsky,  A. T. B. Gilbert,  Xintian Feng,  Joonho Lee,  Yuezhi Mao,  
 N. Mardirossian,  P. Pokhilko,  A. White,  M. Wormit,  M. P. Coons,  
 A. L. Dempwolff,  Zhengting Gan,  D. Hait,  P. R. Horn,  L. D. Jacobson,  
 I. Kaliman,  J. Kussmann,  A. W. Lange,  Ka Un Lao,  D. S. Levine,  Jie Liu,  
 S. C. McKenzie,  A. F. Morrison,  K. Nanda,  F. Plasser,  D. R. Rehn,  
 M. L. Vidal,  Zhi-Qiang You,  Ying Zhu,  B. Alam,  B. Albrecht,  
 A. Aldossary,  E. Alguire,  J. H. Andersen,  D. Barton,  K. Begam,  A. Behn,  
 Y. A. Bernard,  E. J. Berquist,  H. Burton,  A. Carreras,  K. Carter-Fenk,  
 Romit Chakraborty,  A. D. Chien,  K. D. Closser,  V. Cofer-Shabica,  
 S. Dasgupta,  Jia Deng,  M. de Wergifosse,  M. Diedenhofen,  Hainam Do,  
 S. Ehlert,  Po-Tung Fang,  S. Fatehi,  Qingguo Feng,  T. Friedhoff,  
 J. Gayvert,  Qinghui Ge,  G. Gidofalvi,  M. Goldey,  J. Gomes,  
 C. Gonzalez-Espinoza,  S. Gulania,  A. Gunina,  M. W. D. Hanson-Heine,  
 P. H. P. Harbach,  A. W. Hauser,  M. F. Herbst,  M. Hernandez Vera,  
 M. Hodecker,  Z. C. Holden,  S. Houck,  Xunkun Huang,  Kerwin Hui,  
 B. C. Huynh,  M. Ivanov,  Hyunjun Ji,  Hanjie Jiang,  B. Kaduk,  S. Kaehler,  
 K. Khistyaev,  Jaehoon Kim,  P. Klunzinger,  Z. Koczor-Benda,  
 Joong Hoon Koh,  D. Kosenkov,  L. Koulias,  T. Kowalczyk,  C. M. Krauter,  
 K. Kue,  A. Kunitsa,  T. Kus,  A. Landau,  K. V. Lawler,  D. Lefrancois,  
 S. Lehtola,  Rain Li,  Yi-Pei Li,  Jiashu Liang,  M. Liebenthal,  
 Hung-Hsuan Lin,  You-Sheng Lin,  Fenglai Liu,  Kuan-Yu Liu,  
 M. Loipersberger,  A. Luenser,  A. Manjanath,  P. Manohar,  E. Mansoor,  
 S. F. Manzer,  Shan-Ping Mao,  A. V. Marenich,  T. Markovich,  S. Mason,  
 S. A. Maurer,  P. F. McLaughlin,  M. F. S. J. Menger,  J.-M. Mewes,  
 S. A. Mewes,  P. Morgante,  J. W. Mullinax,  K. J. Oosterbaan,  G. Paran,  
 Alexander C. Paul,  Suranjan K. Paul,  F. Pavosevic,  Zheng Pei,  S. Prager,  
 E. I. Proynov,  E. Ramos,  B. Rana,  A. E. Rask,  A. Rettig,  R. M. Richard,  
 F. Rob,  E. Rossomme,  T. Scheele,  M. Scheurer,  M. Schneider,  
 N. Sergueev,  S. M. Sharada,  W. Skomorowski,  D. W. Small,  C. J. Stein,  
 Yu-Chuan Su,  E. J. Sundstrom,  Zhen Tao,  J. Thirman,  T. Tsuchimochi,  
 N. M. Tubman,  S. P. Veccham,  O. Vydrov,  J. Wenzel,  J. Witte,  A. Yamada,  
 Kun Yao,  S. Yeganeh,  S. R. Yost,  A. Zech,  Igor Ying Zhang,  Xing Zhang,  
 Yu Zhang,  D. Zuev,  A. Aspuru-Guzik,  A. T. Bell,  N. A. Besley,  
 K. B. Bravaya,  B. R. Brooks,  D. Casanova,  Jeng-Da Chai,  S. Coriani,  
 C. J. Cramer,  A. E. DePrince, III,  R. A. DiStasio Jr.,  A. Dreuw,  
 B. D. Dunietz,  T. R. Furlani,  W. A. Goddard III,  S. Grimme,  
 S. Hammes-Schiffer,  T. Head-Gordon,  W. J. Hehre,  Chao-Ping Hsu,  
 T.-C. Jagau,  Yousung Jung,  A. Klamt,  Jing Kong,  D. S. Lambrecht,  
 WanZhen Liang,  N. J. Mayhall,  C. W. McCurdy,  J. B. Neaton,  T. Neudecker,  
 C. Ochsenfeld,  J. A. Parkhill,  R. Peverati,  V. A. Rassolov,  Yihan Shao,  
 L. V. Slipchenko,  R. P. Steele,  J. E. Subotnik,  A. J. W. Thom,  
 A. Tkatchenko,  D. G. Truhlar,  T. Van Voorhis,  T. A. Wesolowski,  
 K. B. Whaley,  H. L. Woodcock III,  P. M. Zimmerman,  S. Faraji,  
 P. M. W. Gill,  M. Head-Gordon,  J. M. Herbert,  A. I. Krylov

 Additional authors since Version 5.4.0: 
 Chandrima Chakravarty,  L. Cunha,  R. Kang,  Yongbin Kim,  S. Kotaru,  
 Shaozhi Li,  Xiangyuan Li,  F. Matz,  A. Molle,  V. Parravicini,  
 Haisheng Ren,  Hengyuan Shen,  Yingli Su,  Hung-Yi Tsai,  C. Utku,  
 Fang Wang,  Jeff Yang,  F. Zeller

 Contributors to earlier versions of Q-Chem not listed above: 
 R. D. Adamson,  B. Austin,  R. Baer,  J. Baker,  G. J. O. Beran,  
 K. Brandhorst,  S. T. Brown,  E. F. C. Byrd,  Arup K. Chakraborty,  
 G. K. L. Chan,  Chun-Min Chang,  Yunqing Chen,  C.-L. Cheng,  
 Siu Hung Chien,  D. M. Chipman,  D. L. Crittenden,  H. Dachsel,  
 R. J. Doerksen,  A. D. Dutoi,  R. G. Edgar,  J. Fosso-Tande,  
 L. Fusti-Molnar,  D. Ghosh,  A. Ghysels,  A. Golubeva-Zadorozhnaya,  
 J. Gonthier,  M. S. Gordon,  S. R. Gwaltney,  G. Hawkins,  J. E. Herr,  
 A. Heyden,  S. Hirata,  E. G. Hohenstein,  G. Kedziora,  F. J. Keil,  
 C. Kelley,  Jihan Kim,  R. A. King,  R. Z. Khaliullin,  P. P. Korambath,  
 W. Kurlancheek,  A. Laurent,  A. M. Lee,  M. S. Lee,  S. V. Levchenko,  
 Ching Yeh Lin,  D. Liotard,  E. Livshits,  R. C. Lochan,  I. Lotan,  
 L. A. Martinez-Martinez,  P. E. Maslen,  N. Nair,  D. P. O'Neill,  
 D. Neuhauser,  E. Neuscamman,  C. M. Oana,  R. Olivares-Amaya,  R. Olson,  
 T. M. Perrine,  B. Peters,  P. A. Pieniazek,  A. Prociuk,  Y. M. Rhee,  
 J. Ritchie,  M. A. Rohrdanz,  E. Rosta,  N. J. Russ,  H. F. Schaefer III,  
 M. W. Schmidt,  N. E. Schultz,  S. Sharma,  N. Shenvi,  C. D. Sherrill,  
 A. C. Simmonett,  A. Sodt,  T. Stein,  D. Stuck,  K. S. Thanthiriwatte,  
 V. Vanovschi,  L. Vogt,  Tao Wang,  A. Warshel,  M. A. Watson,  
 C. F. Williams,  Q. Wu,  X. Xu,  Jun Yang,  W. Zhang,  Yan Zhao

   Please cite Q-Chem as follows:
  "Software for the frontiers of quantum chemistry:
   An overview of developments in the Q-Chem 5 package"
   J. Chem. Phys. 155, 084801 (2021)
   https://doi.org/10.1063/5.0055522 (open access)

 Q-Chem 5.4.2 for Intel X86 EM64T Linux

 Parts of Q-Chem use Armadillo 9.900.5 (Nocturnal Misbehaviour).
 http://arma.sourceforge.net/

 Q-Chem begins on Fri Feb 28 06:30:41 2025  

 Host: 
0

     Scratch files written to /scratch/qchem110780//
 Dec1321 |scratch|qcdevops|jenkins|workspace|build_RNUM 5684   
 Processing $rem in /home/kchung25/qchem/5.4.0/config/preferences:
 Processing $rem in /home/kchung25/.qchemrc:

 Q-Chem warning in module libgen/rem_setup.C, line 3079:

 Neither GIA nor STOLL is specified by user. Use STOLL as the default


 Checking the input file for inconsistencies... 	...done.

--------------------------------------------------------------
User input:
--------------------------------------------------------------
$molecule
0 1
--
0 1
C    2.029754   1.123131  -0.290571
C    1.890340  -0.376706  -0.296268
O    1.144521  -0.851246   0.810495
H    1.540555  -0.528261   1.623714
H    2.574105   1.469398  -1.171008
H    2.579304   1.463015   0.592339
H    1.046994   1.600385  -0.283454
H    2.875799  -0.859264  -0.326945
H    1.341500  -0.713398  -1.179928
--
0 1
C   -2.047126   0.925428   0.637739
C   -1.738244   0.151549  -0.621663
O   -1.422060  -1.189958  -0.368607
H   -0.641977  -1.205023   0.205750
H   -2.319559   1.959603   0.413595
H   -1.176827   0.940892   1.300407
H   -2.872421   0.458961   1.179293
H   -0.928504   0.655062  -1.177321
H   -2.607004   0.147853  -1.286962
$end

$rem
JOBTYPE          eda
EDA2             1
METHOD           wB97M-V
BASIS            def2-TZVPPD
SYMMETRY         false
MEM_TOTAL        50000
MEM_STATIC       10000
THRESH           14
SCF_CONVERGENCE  8
XC_GRID          000099000590
NL_GRID          1
EDA_CLS_DISP     true
FD_MAT_VEC_PROD  FALSE
$end
--------------------------------------------------------------
 ----------------------------------------------------------------
             Standard Nuclear Orientation (Angstroms)
    I     Atom           X                Y                Z
 ----------------------------------------------------------------
    1      C       2.0297540545    -1.1231309721     0.2905710229
    2      C       1.8903400716     0.3767060293     0.2962680626
    3      O       1.1445210409     0.8512460638    -0.8104949020
    4      H       1.5405550107     0.5282610783    -1.6237139224
    5      H       2.5741050792    -1.4693979989     1.1710079970
    6      H       2.5793040218    -1.4630149576    -0.5923390030
    7      H       1.0469940488    -1.6003849608     0.2834540437
    8      H       2.8757990781     0.8592640175     0.3269450418
    9      H       1.3415001042     0.7133980148     1.1799280884
   10      C      -2.0471259736    -0.9254279042    -0.6377388396
   11      C      -1.7382439238    -0.1515489372     0.6216631685
   12      O      -1.4220599168     1.1899580651     0.3686071897
   13      H      -0.6419769354     1.2050230698    -0.2057498354
   14      H      -2.3195589780    -1.9596029064    -0.4135948550
   15      H      -1.1768269953    -0.9408918985    -1.3004068683
   16      H      -2.8724209859    -0.4589608821    -1.1792928018
   17      H      -0.9285039113    -0.6550619594     1.1773211303
   18      H      -2.6070039020    -0.1478529430     1.2869621969
 ----------------------------------------------------------------
 Molecular Point Group                 C1    NOp =  1
 Largest Abelian Subgroup              C1    NOp =  1
 Nuclear Repulsion Energy =         261.37426608 hartrees
 There are       26 alpha and       26 beta electrons
 Requested basis set is def2-TZVPPD
 There are 164 shells and 432 basis functions

 Q-Chem warning in module libmdc/get_mega.C, line 171:

 Allowed MEM_STATIC has been capped at MEM_STATIC=8191.
 Reduce the value of MEM_STATIC to silence this warning.


 Total QAlloc Memory Limit  50000 MB
 Mega-Array Size      8007 MB
 MEM_STATIC part      8191 MB
 A cutoff of  1.0D-14 yielded  12676 shell pairs
 There are     87870 function pairs (    108342 Cartesian)
 Smallest overlap matrix eigenvalue = 8.27E-06

 Scale SEOQF with 1.000000e-01/1.000000e-01/1.000000e-01

 Standard Electronic Orientation quadrupole field applied
 Nucleus-field energy     =     0.0000000066 hartrees

 -----------------------------------------------------------------------
  General SCF calculation program by
  Eric Jon Sundstrom, Paul Horn, Yuezhi Mao, Dmitri Zuev, Alec White,
  David Stuck, Shaama M.S., Shane Yost, Joonho Lee, David Small,
  Daniel Levine, Susi Lehtola, Hugh Burton, Evgeny Epifanovsky,
  Bang C. Huynh
 -----------------------------------------------------------------------
================================================================
                 ALMO-EDA with the EDA2 driver                  
================================================================
 The second-generation ALMO-EDA (for DFT):                      
 P. R. Horn, Y. Mao and M. Head-Gordon, PCCP, 18, 23067 (2016)  
 Y. Mao et al. Annu. Rev. Phys. Chem. 72, 641 (2021)            
 Decomposition of the frozen energy:                            
 P. R. Horn, Y. Mao and M. Head-Gordon, JCP, 144, 114107 (2016) 
 FERF model for polarization:                                   
 P. R. Horn and M. Head-Gordon, JCP, 143, 114111 (2015)         
================================================================
 Using eda2 option set 1
 Option set summary: Frozen orbital wavefunction, initial wavefunction decomposition, and nDQ polarization.
--------------------------------
Printing EDA Options
--------------------------------
eda_child_super_basis      0
fragmo_guess_mode          0
child_mp                   1
child_mp_orders            232
cls_elec                   1
cls_disp                   1
scfmi_mode                 1
scfmi_occs                 0
scfmi_virts                0
frz_relax                  0
frz_relax_method           0
dc_pen_start               0
dc_pen_conv                0
dc_pen_increment           0
dc_pen_steps               0
dc_pen_thresh_factor       0
dc_pen_pre_newton_thresh   0
frz_ortho_decomp           1
frz_ortho_decomp_conv      6
plot_mo_ortho_frz          0
frgm_method                2
scfmi_freeze_ss            0
separate_rehyb             0
plot_diff_den              0
eda_nocv                   0
eda_vct_relax              1
disp_free_x                0
disp_free_c                0
eda_bsse                   0
eda_pct_a                  0
eda_covp                   0
--------------------------------
Attempting to make child job directory: /scratch/qchem110780//Frg1/
Attempting to make child job directory: /scratch/qchem110780//Frg2/
Creating input file /scratch/qchem110780/Frg1.input
using default PutDataFrgm: nothing
calling putenv with: QCSCRATCH=/scratch/qchem110780/ 
Spawning Job For Fragment 0
Done Job For Fragment 0
calling putenv with: QCSCRATCH=/scratch 
calling putenv with: QCTHREADS=6 
Creating input file /scratch/qchem110780/Frg2.input
using default PutDataFrgm: nothing
calling putenv with: QCSCRATCH=/scratch/qchem110780/ 
Spawning Job For Fragment 1
Done Job For Fragment 1
calling putenv with: QCSCRATCH=/scratch 
calling putenv with: QCTHREADS=6 
Doing General SCFMI
 Exchange:     0.1500 Hartree-Fock + 1.0000 wB97M-V + LR-HF
 Correlation:  1.0000 wB97M-V
 Using Euler-Maclaurin-Lebedev (99,590) quadrature formula
 Nonlocal Correlation:  VV10 with C = 0.0100 and b = 6.00 and scale = 1.00000
 Grid used for NLC:  SG-1 standard quadrature
performing fock build before subrot guess so that all methods have access
Printing subrot_rss_gen Method Specification:
Occupied Subspace Method is 0
Virtual Subspace Method is 0
Energy of the unrelaxed supersystem initial determinant -310.062422033698
write pseudocanon occs and virts to disk
write pseudocanon orbital energies to disk
Tolerance of ortho_decomp_scf: 1.00e-06
GDM subspace size: 20
Beginning the Orthogonal Decomposition of the Initial Supersystem Wavefunction
    1    -310.0098935760      9.76e-02     ortho_decomp Preconditoned Steepest Descent
    2    -310.0166285573      2.05e-03     ortho_decomp BFGS Step
    3    -310.0166476333      1.67e-04     ortho_decomp BFGS Step
    4    -310.0166476637      5.67e-06     ortho_decomp BFGS Step
    5    -310.0166476638      1.64e-07     ortho_decomp 00000 Convergence criterion met
 Hartree-Fock
 Hartree-Fock
 Hartree-Fock
 Exchange:     0.1500 Hartree-Fock + 1.0000 wB97M-V + LR-HF
 Correlation:  1.0000 wB97M-V
 Using Euler-Maclaurin-Lebedev (99,590) quadrature formula
 Nonlocal Correlation:  VV10 with C = 0.0100 and b = 6.00 and scale = 1.00000
 Grid used for NLC:  SG-1 standard quadrature
 Long-range K will be added via erf
 Coulomb attenuation parameter = 0.3 bohr**(-1)
 Nonlocal correlation = 2.033347071173e-01
Doing General SCFMI
 Exchange:     0.1500 Hartree-Fock + 1.0000 wB97M-V + LR-HF
 Correlation:  1.0000 wB97M-V
 Using Euler-Maclaurin-Lebedev (99,590) quadrature formula
 Nonlocal Correlation:  VV10 with C = 0.0100 and b = 6.00 and scale = 1.00000
 Grid used for NLC:  SG-1 standard quadrature
performing fock build at end of subrot_r(subrot) constructor so that all methods have access
<S^2> of initial wavefunction before polarization iterations 0.0000000000
Beginning iterations for the determination of the polarized wavefunction
Energy prior to optimization (guess energy) = -310.062422033698
Begin Timing: Total SCF Calculation
begin iterations for algorithm: DIIS         
the SCF tolerance is set to 1.00e-08
    1    -310.0624220337      2.94e-04     00000 
    2    -310.0649205780      9.81e-05     00000 
    3    -310.0651421159      6.03e-05     00000 
    4    -310.0651990895      2.27e-05     00000 
    5    -310.0652110103      7.75e-06     00000 
    6    -310.0652143247      3.18e-06     00000 
    7    -310.0652148197      1.48e-06     00000 
    8    -310.0652149236      5.57e-07     00000 
    9    -310.0652149325      2.80e-07     00000 
   10    -310.0652149340      8.18e-08     00000 
   11    -310.0652149342      3.15e-08     00000 
   12    -310.0652149342      1.48e-08     00000 
   13    -310.0652149342      6.64e-09     00000 Convergence criterion met
write pseudocanon occs and virts to disk
write pseudocanon orbital energies to disk
Timing for Total SCF: 331.00s (wall), 1982.94s (cpu)
<S^2> of polarized wavefunction after polarization iterations 0.0000000000
relaxing scfmi constraint to allow all rotations in the entire AO span
Doing General SCFMI
 Exchange:     0.1500 Hartree-Fock + 1.0000 wB97M-V + LR-HF
 Correlation:  1.0000 wB97M-V
 Using Euler-Maclaurin-Lebedev (99,590) quadrature formula
 Nonlocal Correlation:  VV10 with C = 0.0100 and b = 6.00 and scale = 1.00000
 Grid used for NLC:  SG-1 standard quadrature
performing fock build at end of subrot_r(subrot) constructor so that all methods have access
<S^2> of polarized wavefunction before ct-allowed iterations 0.0000000000
Beginning iterations for the determination of the CT-Allowed wavefunction
Energy prior to optimization (guess energy) = -310.065214934240
Begin Timing: Total SCF Calculation
begin iterations for algorithm: DIIS         
the SCF tolerance is set to 1.00e-08
    1    -310.0652149342      1.72e-04     00000 
    2    -310.0683277420      2.44e-05     00000 
    3    -310.0684294873      9.53e-06     00000 
    4    -310.0684349525      5.01e-06     00000 
    5    -310.0684368133      4.27e-07     00000 
    6    -310.0684368461      2.12e-07     00000 
    7    -310.0684368517      5.55e-08     00000 
    8    -310.0684368521      2.11e-08     00000 
    9    -310.0684368521      7.79e-09     00000 Convergence criterion met
write pseudocanon occs and virts to disk
write pseudocanon orbital energies to disk
Timing for Total SCF: 220.00s (wall), 1322.89s (cpu)
<S^2> of ct_allowed wavefunction after ct-allowed iterations 0.0000000000

================================
        Results of EDA2         
================================
Basic EDA Quantities
--------------------
Fragment Energies (Ha):
1 -155.0294515224
2 -155.0291043310
--------------------
  E_prp (kJ/mol) = 0.0000
  E_frz (kJ/mol) = -10.1508
  E_pol (kJ/mol) = -7.3328
  E_vct (kJ/mol) = -8.4592
  E_int (kJ/mol) = -25.9429
--------------------


Decomposition of frozen interaction energy
--------------------
  --------------------
  Orthogonal Frozen Decomposition:
  --------------------
     E_elec   (ELEC)   (kJ/mol) = -77.8146
     E_pauli  (PAULI)  (kJ/mol) = 88.0214
     E_disp   (DISP)   (kJ/mol) = -20.3576
  --------------------
  Classical Frozen Decomposition:
  --------------------
     E_cls_elec  (CLS ELEC)  (kJ/mol) = -38.8215
     E_mod_pauli (MOD PAULI) (kJ/mol) = 46.1774 (FRZ - CLS ELEC - CLS DISP)
     E_cls_disp  (CLS DISP)  (kJ/mol) = -17.5067
  --------------------
--------------------

Simplified EDA Summary (kJ/mol)
--------------------
 PREPARATION      0.0000
 FROZEN           -10.1508 (ELEC + PAULI + DISP)
[ELEC + PAULI = 7.3559, DISP = -17.5067]
 POLARIZATION    -7.3328
 CHARGE TRANSFER -8.4592
 TOTAL           -25.9429     (PRP + FRZ + POL + CT)
--------------------
 
 --------------------------------------------------------------
 
                    Orbital Energies (a.u.)
 --------------------------------------------------------------
 
 Alpha MOs
 -- Occupied --
-19.3539 -19.3052 -10.3997 -10.3733 -10.3447 -10.3219  -1.1744  -1.1307
 -0.8860  -0.8581  -0.7582  -0.7270  -0.6383  -0.5995  -0.5739  -0.5644
 -0.5477  -0.5311  -0.5000  -0.4885  -0.4707  -0.4608  -0.4472  -0.4116
 -0.3976  -0.3607
 -- Virtual --
  0.0279   0.0501   0.0539   0.0584   0.0782   0.0865   0.0955   0.0975
  0.1083   0.1299   0.1310   0.1386   0.1410   0.1475   0.1569   0.1642
  0.1729   0.1772   0.1915   0.1944   0.1989   0.2051   0.2201   0.2355
  0.2413   0.2492   0.2501   0.2615   0.2651   0.2717   0.2786   0.2820
  0.2893   0.3000   0.3034   0.3072   0.3085   0.3136   0.3165   0.3206
  0.3293   0.3337   0.3348   0.3380   0.3425   0.3497   0.3564   0.3584
  0.3692   0.3749   0.3827   0.3859   0.3961   0.4027   0.4030   0.4113
  0.4159   0.4228   0.4327   0.4353   0.4411   0.4459   0.4508   0.4557
  0.4612   0.4648   0.4687   0.4810   0.4844   0.4907   0.4937   0.4995
  0.5096   0.5179   0.5280   0.5330   0.5479   0.5539   0.5600   0.5657
  0.5710   0.5864   0.5907   0.5982   0.6132   0.6196   0.6273   0.6468
  0.6593   0.6652   0.6671   0.6783   0.6948   0.6984   0.7054   0.7139
  0.7262   0.7351   0.7423   0.7499   0.7536   0.7579   0.7629   0.7716
  0.7746   0.7822   0.7896   0.8082   0.8122   0.8154   0.8335   0.8410
  0.8492   0.8612   0.8685   0.8856   0.8931   0.9073   0.9097   0.9303
  0.9431   0.9610   0.9702   0.9936   1.0046   1.0234   1.0304   1.0459
  1.0721   1.0739   1.0825   1.1052   1.1288   1.1540   1.1589   1.1723
  1.1822   1.1965   1.2092   1.2146   1.2269   1.2498   1.2551   1.2683
  1.2706   1.2877   1.2966   1.3059   1.3317   1.3349   1.3454   1.3559
  1.3611   1.3682   1.3849   1.3995   1.4172   1.4404   1.4563   1.4573
  1.4718   1.4901   1.4940   1.5112   1.5189   1.5419   1.5488   1.5941
  1.6015   1.6135   1.6197   1.6504   1.6520   1.6595   1.6813   1.6890
  1.7053   1.7154   1.7345   1.7493   1.7621   1.7764   1.7892   1.7934
  1.8265   1.8541   1.9393   1.9558   1.9772   2.0068   2.0168   2.0609
  2.0903   2.1225   2.1537   2.1727   2.1878   2.2275   2.2518   2.2749
  2.2956   2.3456   2.3483   2.3787   2.4013   2.4242   2.4629   2.4748
  2.5192   2.5774   2.6860   2.7143   2.7358   2.7850   2.8014   2.8221
  2.8456   2.8597   2.8786   2.8799   2.8964   2.8978   2.9372   2.9430
  2.9551   2.9572   2.9693   2.9868   3.0109   3.0200   3.0401   3.0488
  3.0664   3.0739   3.0979   3.1183   3.1288   3.1331   3.1572   3.1784
  3.1892   3.2229   3.2376   3.2583   3.2640   3.2713   3.2821   3.2936
  3.3021   3.3138   3.3211   3.3326   3.3564   3.3603   3.3772   3.3951
  3.4153   3.4364   3.4619   3.4852   3.5091   3.5141   3.5471   3.5483
  3.5881   3.5982   3.6298   3.6318   3.6403   3.6746   3.6825   3.7069
  3.7169   3.7275   3.7292   3.7555   3.7628   3.7810   3.7970   3.7998
  3.8263   3.8519   3.8730   3.9038   3.9346   3.9541   3.9827   3.9996
  4.0119   4.0258   4.0318   4.0457   4.0557   4.0893   4.1029   4.1205
  4.1361   4.1381   4.1508   4.1780   4.1910   4.2031   4.2242   4.2316
  4.2337   4.2380   4.2506   4.2710   4.2804   4.3008   4.3098   4.3209
  4.3599   4.3672   4.3759   4.4018   4.4262   4.4553   4.4730   4.4833
  4.4979   4.5068   4.5245   4.5327   4.5504   4.5755   4.6096   4.6315
  4.6904   4.6944   4.7172   4.7196   4.7438   4.7752   4.8088   4.8272
  4.8319   4.8328   4.9407   4.9525   4.9687   4.9767   4.9940   5.0100
  5.0377   5.0476   5.0681   5.1104   5.1514   5.1655   5.2218   5.2618
  5.2956   5.3084   5.3428   5.3761   5.4060   5.4195   5.4284   5.4348
  5.4455   5.4568   5.4722   5.4926   5.5051   5.5172   5.5788   5.5946
  5.6033   5.6405   5.6832   5.7064   5.7322   5.7423   5.7491   5.7782
  5.7970   5.8497   5.8844   5.9475   6.0910   6.1515   6.3040   6.3271
  6.6314   6.6906   6.8335   6.8734   6.9092   6.9333   7.0062   7.0306
  7.0895   7.1341   7.3775   7.4099   7.5448   7.6305   7.8122   7.8619
 23.7393  23.8405  24.0425  24.0775  44.7681  44.8590
 --------------------------------------------------------------
 
          Ground-State Mulliken Net Atomic Charges

     Atom                 Charge (a.u.)
  ----------------------------------------
      1 C                    -0.939080
      2 C                    -0.205704
      3 O                    -0.369277
      4 H                     0.111110
      5 H                     0.291984
      6 H                     0.320812
      7 H                     0.223916
      8 H                     0.330776
      9 H                     0.239312
     10 C                    -0.983971
     11 C                    -0.118257
     12 O                    -0.480708
     13 H                     0.270840
     14 H                     0.265376
     15 H                     0.227681
     16 H                     0.330811
     17 H                     0.191876
     18 H                     0.292502
  ----------------------------------------
  Sum of atomic charges =     0.000000

 -----------------------------------------------------------------
                    Cartesian Multipole Moments
 -----------------------------------------------------------------
    Charge (ESU x 10^10)
                 0.0000
    Dipole Moment (Debye)
         X       2.7652      Y      -2.3001      Z      -0.8032
       Tot       3.6854
    Quadrupole Moments (Debye-Ang)
        XX     -37.7703     XY       2.8905     YY     -44.9535
        XZ      -1.0164     YZ      -1.1113     ZZ     -38.1038
    Octopole Moments (Debye-Ang^2)
       XXX      10.5675    XXY      -2.9156    XYY       4.6709
       YYY       2.5719    XXZ      -2.6313    XYZ       2.1118
       YYZ      -1.0474    XZZ       6.8280    YZZ       3.0065
       ZZZ      -8.1816
    Hexadecapole Moments (Debye-Ang^3)
      XXXX    -820.6895   XXXY       8.5712   XXYY    -195.0472
      XYYY       6.2475   YYYY    -269.3846   XXXZ     -15.7237
      XXYZ      -4.7868   XYYZ       1.5768   YYYZ      -4.3086
      XXZZ    -153.3357   XYZZ      -1.2349   YYZZ     -71.9480
      XZZZ     -18.1059   YZZZ      -6.1613   ZZZZ    -141.7667
 -----------------------------------------------------------------
 Total job time:  1611.19s(wall), 6109.55s(cpu) 
 Fri Feb 28 06:57:32 2025

        *************************************************************
        *                                                           *
        *  Thank you very much for using Q-Chem.  Have a nice day.  *
        *                                                           *
        *************************************************************


